<?xml version="1.0" encoding="UTF-8"?>

<!-- generated on 2026-04-08T12:49:40.432789+01:00 by Eclipse SUMO GUI v1_26_0+0818-8fa21e3b56a
<sumoConfiguration xmlns:xsi="http://www.w3.org/2001/XMLSchema-instance" xsi:noNamespaceSchemaLocation="http://sumo.dlr.de/xsd/sumoConfiguration.xsd">

    <input>
        <net-file value="urbanNetworks/Prova_VialeAldini/osm.net.xml.gz"/>
        <route-files value="urbanNetworks/Prova_VialeAldini/heavy.rou.xml"/>
        <additional-files value="urbanNetworks/Prova_VialeAldini/rilevazioni/output.add.xml"/>
    </input>

    <output>
        <tripinfo-output value="urbanNetworks/Prova_VialeAldini/output/tripinfos.xml"/>
        <statistic-output value="urbanNetworks/Prova_VialeAldini/output/stats.xml"/>
    </output>

    <processing>
        <ignore-route-errors value="true"/>
        <tls.actuated.jam-threshold value="30"/>
    </processing>

    <routing>
        <device.rerouting.adaptation-steps value="18"/>
        <device.rerouting.adaptation-interval value="10"/>
    </routing>

    <report>
        <verbose value="true"/>
        <duration-log.statistics value="true"/>
        <no-step-log value="true"/>
    </report>

    <gui_only>
        <gui-settings-file value="urbanNetworks/Prova_VialeAldini/osm.view.xml"/>
    </gui_only>

</sumoConfiguration>
-->

<meandata xmlns:xsi="http://www.w3.org/2001/XMLSchema-instance" xsi:noNamespaceSchemaLocation="http://sumo.dlr.de/xsd/meandata_file.xsd">
    <interval begin="0.00" end="680.00" id="wizard_example">
        <edge id="-1023996215#2" sampledSeconds="556.22" traveltime="19.45" overlapTraveltime="20.13" density="5.65" overlapDensity="5.84" laneDensity="5.65" occupancy="2.84" waitingTime="0.00" timeLoss="66.23" speed="7.21" speedRelative="0.86" departed="9" arrived="3" entered="19" left="25" laneChangedFrom="0" laneChangedTo="0" flow="146.50"/>
        <edge id="-103538896" sampledSeconds="15.22" traveltime="14.70" overlapTraveltime="15.31" density="0.19" overlapDensity="0.20" laneDensity="0.19" occupancy="0.09" waitingTime="0.00" timeLoss="1.06" speed="7.77" speedRelative="0.93" departed="0" arrived="1" entered="1" left="0" laneChangedFrom="0" laneChangedTo="0" flow="5.29"/>
        <edge id="-1103834241" sampledSeconds="222.22" traveltime="6.24" overlapTraveltime="7.80" density="7.42" overlapDensity="9.30" laneDensity="7.42" occupancy="4.01" waitingTime="11.00" timeLoss="66.56" speed="5.15" speedRelative="0.62" departed="4" arrived="1" entered="25" left="28" laneChangedFrom="0" laneChangedTo="0" flow="150.46"/>
        <edge id="-170687890" sampledSeconds="199.12" traveltime="24.49" overlapTraveltime="25.73" density="1.83" overlapDensity="1.93" laneDensity="1.83" occupancy="0.94" waitingTime="20.00" timeLoss="54.62" speed="6.10" speedRelative="0.73" departed="8" arrived="0" entered="0" left="8" laneChangedFrom="0" laneChangedTo="0" flow="40.93"/>
        <edge id="-171520872#1" sampledSeconds="548.79" traveltime="111.11" overlapTraveltime="113.38" density="3.24" overlapDensity="3.26" laneDensity="3.24" occupancy="1.61" waitingTime="0.00" timeLoss="123.43" speed="2.23" speedRelative="0.80" departed="0" arrived="4" entered="5" left="0" laneChangedFrom="0" laneChangedTo="0" flow="26.03"/>
        <edge id="-23185949" sampledSeconds="52.26" traveltime="0.06" overlapTraveltime="2.67" density="8.48" overlapDensity="133.33" laneDensity="8.48" occupancy="7.55" waitingTime="24.00" timeLoss="38.43" speed="1.95" speedRelative="0.23" departed="2" arrived="3" entered="19" left="18" laneChangedFrom="0" laneChangedTo="0" flow="100.59"/>
        <edge id="-23276766#0" sampledSeconds="132.11" traveltime="4.25" overlapTraveltime="5.52" density="7.34" overlapDensity="9.50" laneDensity="7.34" occupancy="4.03" waitingTime="34.00" timeLoss="60.15" speed="4.61" speedRelative="0.55" departed="4" arrived="3" entered="21" left="22" laneChangedFrom="0" laneChangedTo="0" flow="127.07"/>
        <edge id="-23276766#2" sampledSeconds="881.29" traveltime="25.12" overlapTraveltime="25.94" density="9.62" overlapDensity="9.86" laneDensity="9.62" occupancy="4.79" waitingTime="230.00" timeLoss="324.22" speed="5.26" speedRelative="0.63" departed="5" arrived="2" entered="30" left="28" laneChangedFrom="0" laneChangedTo="0" flow="181.04"/>
        <edge id="-23296952#2" sampledSeconds="5742.77" traveltime="111.12" overlapTraveltime="112.76" density="50.71" overlapDensity="51.09" laneDensity="50.71" occupancy="25.37" waitingTime="4189.00" timeLoss="4694.43" speed="1.51" speedRelative="0.18" departed="3" arrived="2" entered="59" left="38" laneChangedFrom="0" laneChangedTo="0" flow="271.54"/>
        <edge id="-237638594#0" sampledSeconds="31.38" traveltime="14.98" overlapTraveltime="15.69" density="0.46" overlapDensity="0.48" laneDensity="0.46" occupancy="0.23" waitingTime="0.00" timeLoss="3.00" speed="6.40" speedRelative="0.77" departed="0" arrived="2" entered="2" left="0" laneChangedFrom="0" laneChangedTo="0" flow="10.59"/>
        <edge id="-237638594#1" sampledSeconds="399.97" traveltime="26.50" overlapTraveltime="27.13" density="2.90" overlapDensity="2.96" laneDensity="2.90" occupancy="1.46" waitingTime="0.00" timeLoss="44.75" speed="7.51" speedRelative="0.90" departed="10" arrived="4" entered="6" left="11" laneChangedFrom="0" laneChangedTo="0" flow="78.31"/>
        <edge id="-237638594#3" sampledSeconds="901.88" traveltime="21.47" overlapTraveltime="22.78" density="9.00" overlapDensity="9.54" laneDensity="9.00" occupancy="4.57" waitingTime="60.00" timeLoss="196.96" speed="6.32" speedRelative="0.76" departed="10" arrived="5" entered="30" left="35" laneChangedFrom="0" laneChangedTo="0" flow="209.82"/>
        <edge id="-30814311#1" sampledSeconds="396.88" traveltime="25.90" overlapTraveltime="26.68" density="2.93" overlapDensity="3.02" laneDensity="2.93" occupancy="1.48" waitingTime="0.00" timeLoss="43.13" speed="7.44" speedRelative="0.89" departed="4" arrived="1" entered="11" left="14" laneChangedFrom="0" laneChangedTo="0" flow="78.85"/>
        <edge id="-30824033#1" sampledSeconds="464.62" traveltime="18.22" overlapTraveltime="19.37" density="5.01" overlapDensity="5.31" laneDensity="5.01" occupancy="2.55" waitingTime="5.00" timeLoss="69.77" speed="6.90" speedRelative="0.83" departed="10" arrived="5" entered="15" left="19" laneChangedFrom="0" laneChangedTo="0" flow="127.40"/>
        <edge id="-30824033#5" sampledSeconds="931.75" traveltime="22.99" overlapTraveltime="24.13" density="8.11" overlapDensity="8.50" laneDensity="8.11" occupancy="4.11" waitingTime="4.00" timeLoss="153.35" speed="6.89" speedRelative="0.83" departed="11" arrived="6" entered="28" left="33" laneChangedFrom="0" laneChangedTo="0" flow="204.63"/>
        <edge id="-33523355#1" sampledSeconds="287.17" traveltime="5.13" overlapTraveltime="6.07" density="10.85" overlapDensity="12.81" laneDensity="10.85" occupancy="5.55" waitingTime="11.00" timeLoss="73.61" speed="6.26" speedRelative="0.75" departed="4" arrived="3" entered="44" left="45" laneChangedFrom="0" laneChangedTo="0" flow="250.84"/>
        <edge id="-33523355#2" sampledSeconds="518.43" traveltime="10.27" overlapTraveltime="11.08" density="12.37" overlapDensity="13.35" laneDensity="12.37" occupancy="6.22" waitingTime="86.00" timeLoss="168.35" speed="5.61" speedRelative="0.67" departed="2" arrived="3" entered="45" left="44" laneChangedFrom="0" laneChangedTo="0" flow="247.88"/>
        <edge id="-33523355#3" sampledSeconds="308.54" traveltime="5.96" overlapTraveltime="8.09" density="8.78" overlapDensity="11.86" laneDensity="8.78" occupancy="5.14" waitingTime="59.00" timeLoss="107.22" speed="5.35" speedRelative="0.64" departed="5" arrived="6" entered="34" left="33" laneChangedFrom="0" laneChangedTo="0" flow="202.94"/>
        <edge id="-33523355#4" sampledSeconds="445.74" traveltime="12.04" overlapTraveltime="12.92" density="7.99" overlapDensity="8.57" laneDensity="7.99" occupancy="4.04" waitingTime="37.00" timeLoss="99.79" speed="6.31" speedRelative="0.76" departed="7" arrived="2" entered="28" left="33" laneChangedFrom="0" laneChangedTo="0" flow="182.82"/>
        <edge id="-33523578#2" sampledSeconds="120.93" traveltime="6.78" overlapTraveltime="7.44" density="3.78" overlapDensity="4.17" laneDensity="3.78" occupancy="1.88" waitingTime="0.00" timeLoss="26.49" speed="6.40" speedRelative="0.77" departed="7" arrived="0" entered="10" left="17" laneChangedFrom="0" laneChangedTo="0" flow="85.57"/>
        <edge id="-37711918" sampledSeconds="38.15" traveltime="6.68" overlapTraveltime="7.33" density="1.49" overlapDensity="1.67" laneDensity="1.49" occupancy="0.79" waitingTime="0.00" timeLoss="13.25" speed="5.26" speedRelative="0.63" departed="6" arrived="0" entered="0" left="6" laneChangedFrom="0" laneChangedTo="0" flow="26.93"/>
        <edge id="-379112060#2" sampledSeconds="522.77" traveltime="16.09" overlapTraveltime="16.91" density="98.98" overlapDensity="106.63" laneDensity="98.98" occupancy="49.98" waitingTime="426.00" timeLoss="467.28" speed="0.72" speedRelative="0.09" departed="4" arrived="0" entered="29" left="32" laneChangedFrom="0" laneChangedTo="0" flow="159.65"/>
        <edge id="-38592259" sampledSeconds="30.87" traveltime="5.70" overlapTraveltime="6.46" density="1.87" overlapDensity="2.27" laneDensity="1.87" occupancy="1.04" waitingTime="4.00" timeLoss="15.83" speed="3.88" speedRelative="0.47" departed="6" arrived="0" entered="0" left="6" laneChangedFrom="0" laneChangedTo="0" flow="23.68"/>
        <edge id="-455829556#2" sampledSeconds="80.60" traveltime="15.49" overlapTraveltime="16.16" density="0.96" overlapDensity="1.00" laneDensity="0.96" occupancy="0.48" waitingTime="0.00" timeLoss="5.52" speed="7.62" speedRelative="0.92" departed="0" arrived="5" entered="5" left="0" laneChangedFrom="0" laneChangedTo="0" flow="26.47"/>
        <edge id="-65292475" sampledSeconds="0.00" departed="0" arrived="0" entered="0" left="0" laneChangedFrom="0" laneChangedTo="0"/>
        <edge id="-685037225#1" sampledSeconds="55.25" traveltime="10.98" overlapTraveltime="11.85" density="1.06" overlapDensity="1.14" laneDensity="1.06" occupancy="0.55" waitingTime="0.00" timeLoss="14.01" speed="6.42" speedRelative="0.77" departed="5" arrived="0" entered="0" left="5" laneChangedFrom="0" laneChangedTo="0" flow="24.57"/>
        <edge id="-808547875" sampledSeconds="605.00" overlapTraveltime="100000.00" density="266.67" overlapDensity="266.67" laneDensity="133.33" occupancy="44.49" waitingTime="605.00" timeLoss="605.00" speed="0.00" speedRelative="0.00" departed="3" arrived="0" entered="0" left="2" laneChangedFrom="0" laneChangedTo="0" teleported="2" flow="0.00"/>
        <edge id="-945850922" sampledSeconds="395.01" traveltime="16.65" overlapTraveltime="17.38" density="4.59" overlapDensity="4.79" laneDensity="4.59" occupancy="2.31" waitingTime="0.00" timeLoss="45.26" speed="7.27" speedRelative="0.87" departed="6" arrived="3" entered="17" left="20" laneChangedFrom="0" laneChangedTo="0" flow="120.43"/>
        <edge id="1023996215#0" sampledSeconds="715.86" traveltime="20.28" overlapTraveltime="21.09" density="7.15" overlapDensity="7.41" laneDensity="7.15" occupancy="3.59" waitingTime="11.00" timeLoss="98.94" speed="6.97" speedRelative="0.84" departed="7" arrived="6" entered="29" left="27" laneChangedFrom="0" laneChangedTo="0" flow="180.26"/>
        <edge id="103538896" sampledSeconds="128.25" traveltime="16.05" overlapTraveltime="16.75" density="1.58" overlapDensity="1.65" laneDensity="1.58" occupancy="0.81" waitingTime="0.00" timeLoss="21.85" speed="7.14" speedRelative="0.86" departed="9" arrived="0" entered="0" left="8" laneChangedFrom="0" laneChangedTo="0" flow="40.47"/>
        <edge id="1067121593#0" sampledSeconds="1277.68" traveltime="23.78" overlapTraveltime="24.72" density="12.30" overlapDensity="12.74" laneDensity="12.30" occupancy="6.18" waitingTime="151.00" timeLoss="339.36" speed="6.17" speedRelative="0.74" departed="4" arrived="6" entered="49" left="42" laneChangedFrom="0" laneChangedTo="0" flow="274.81"/>
        <edge id="1103834241" sampledSeconds="219.47" traveltime="5.91" overlapTraveltime="6.58" density="7.72" overlapDensity="8.59" laneDensity="7.72" occupancy="3.84" waitingTime="0.00" timeLoss="45.51" speed="6.47" speedRelative="0.78" departed="12" arrived="6" entered="23" left="29" laneChangedFrom="0" laneChangedTo="0" flow="176.67"/>
        <edge id="1221422471" sampledSeconds="0.00" departed="0" arrived="0" entered="0" left="0" laneChangedFrom="0" laneChangedTo="0"/>
        <edge id="135982476#0" sampledSeconds="80.70" traveltime="20.24" overlapTraveltime="20.64" density="0.52" overlapDensity="0.53" laneDensity="0.17" occupancy="0.09" waitingTime="0.00" timeLoss="13.99" speed="11.06" speedRelative="0.80" departed="4" arrived="0" entered="0" left="4" laneChangedFrom="0" laneChangedTo="0" flow="20.69"/>
        <edge id="135982476#3" sampledSeconds="200.76" traveltime="8.94" overlapTraveltime="9.33" density="3.03" overlapDensity="3.17" laneDensity="1.01" occupancy="0.50" waitingTime="0.00" timeLoss="43.99" speed="10.53" speedRelative="0.76" departed="9" arrived="5" entered="13" left="17" laneChangedFrom="10" laneChangedTo="10" flow="113.87"/>
        <edge id="1462715258" sampledSeconds="11.66" traveltime="3.91" overlapTraveltime="4.39" density="1.13" overlapDensity="1.69" laneDensity="1.13" occupancy="0.71" waitingTime="0.00" timeLoss="6.96" speed="3.45" speedRelative="0.41" departed="4" arrived="0" entered="0" left="4" laneChangedFrom="0" laneChangedTo="0" flow="10.55"/>
        <edge id="1467263794#0" sampledSeconds="4062.61" traveltime="75.43" overlapTraveltime="76.58" density="52.07" overlapDensity="52.31" laneDensity="17.36" occupancy="8.66" waitingTime="3378.00" timeLoss="3600.06" speed="1.56" speedRelative="0.11" departed="5" arrived="1" entered="51" left="40" laneChangedFrom="55" laneChangedTo="55" flow="283.81"/>
        <edge id="1467263796#0" sampledSeconds="139.49" traveltime="17.14" overlapTraveltime="17.49" density="0.85" overlapDensity="0.87" laneDensity="0.28" occupancy="0.14" waitingTime="0.00" timeLoss="9.21" speed="13.81" speedRelative="0.99" departed="0" arrived="8" entered="8" left="0" laneChangedFrom="0" laneChangedTo="0" flow="42.35"/>
        <edge id="1467263797#0" sampledSeconds="9593.52" traveltime="143.21" overlapTraveltime="145.69" density="150.18" overlapDensity="151.07" laneDensity="50.06" occupancy="24.56" waitingTime="8018.00" timeLoss="9124.64" speed="0.68" speedRelative="0.05" departed="5" arrived="8" entered="73" left="48" laneChangedFrom="14" laneChangedTo="14" teleported="1" flow="352.55"/>
        <edge id="1467263798#0" sampledSeconds="104.36" traveltime="7.20" overlapTraveltime="7.83" density="2.85" overlapDensity="3.08" laneDensity="2.85" occupancy="1.44" waitingTime="0.00" timeLoss="19.47" speed="7.00" speedRelative="0.84" departed="6" arrived="2" entered="8" left="12" laneChangedFrom="0" laneChangedTo="0" flow="70.86"/>
        <edge id="1472800673#0" sampledSeconds="126.74" traveltime="24.91" overlapTraveltime="26.00" density="0.90" overlapDensity="0.94" laneDensity="0.30" occupancy="0.15" waitingTime="24.00" timeLoss="57.51" speed="7.82" speedRelative="0.56" departed="5" arrived="0" entered="0" left="5" laneChangedFrom="0" laneChangedTo="0" flow="25.79"/>
        <edge id="1472850568#0" sampledSeconds="1351.12" traveltime="34.41" overlapTraveltime="36.44" density="28.44" overlapDensity="29.84" laneDensity="9.48" occupancy="4.84" waitingTime="894.00" timeLoss="1154.90" speed="1.96" speedRelative="0.14" departed="6" arrived="3" entered="32" left="33" laneChangedFrom="42" laneChangedTo="42" flow="198.13"/>
        <edge id="1472850569#0" sampledSeconds="4529.96" traveltime="80.77" overlapTraveltime="83.92" density="127.83" overlapDensity="130.57" laneDensity="42.61" occupancy="21.27" waitingTime="4091.69" timeLoss="4308.32" speed="0.67" speedRelative="0.05" departed="5" arrived="5" entered="58" left="45" laneChangedFrom="39" laneChangedTo="39" teleported="1" flow="290.69"/>
        <edge id="1472850569#1" sampledSeconds="1339.44" traveltime="26.12" overlapTraveltime="27.38" density="7.37" overlapDensity="7.72" laneDensity="2.46" occupancy="1.24" waitingTime="150.00" timeLoss="407.77" speed="9.50" speedRelative="0.68" departed="5" arrived="2" entered="45" left="46" laneChangedFrom="61" laneChangedTo="61" flow="259.11"/>
        <edge id="170687890" sampledSeconds="58.37" traveltime="19.14" overlapTraveltime="19.81" density="0.57" overlapDensity="0.58" laneDensity="0.57" occupancy="0.28" waitingTime="0.00" timeLoss="4.46" speed="7.67" speedRelative="0.92" departed="0" arrived="3" entered="3" left="0" laneChangedFrom="0" laneChangedTo="0" flow="15.88"/>
        <edge id="171520872#0" sampledSeconds="291.25" traveltime="130.24" overlapTraveltime="131.89" density="1.76" overlapDensity="1.78" laneDensity="1.76" occupancy="0.88" waitingTime="12.00" timeLoss="81.11" speed="1.86" speedRelative="0.67" departed="3" arrived="0" entered="0" left="2" laneChangedFrom="0" laneChangedTo="0" flow="11.71"/>
        <edge id="210196700#0" sampledSeconds="0.00" departed="0" arrived="0" entered="0" left="0" laneChangedFrom="0" laneChangedTo="0"/>
        <edge id="23185949" sampledSeconds="86.44" traveltime="0.32" overlapTraveltime="1.18" density="133.33" overlapDensity="133.33" laneDensity="133.33" occupancy="10.77" waitingTime="18.00" timeLoss="40.59" speed="4.39" speedRelative="0.53" departed="7" arrived="3" entered="67" left="71" laneChangedFrom="0" laneChangedTo="0" flow="300.61"/>
        <edge id="232512837#0" sampledSeconds="0.00" departed="0" arrived="0" entered="0" left="0" laneChangedFrom="0" laneChangedTo="0"/>
        <edge id="23271710" sampledSeconds="1583.70" traveltime="17.49" overlapTraveltime="18.28" density="18.15" overlapDensity="18.97" laneDensity="18.15" occupancy="8.98" waitingTime="0.00" timeLoss="245.90" speed="6.99" speedRelative="0.84" departed="8" arrived="5" entered="79" left="82" laneChangedFrom="0" laneChangedTo="0" flow="458.83"/>
        <edge id="23271717" sampledSeconds="253.78" traveltime="2.78" overlapTraveltime="3.76" density="16.64" overlapDensity="22.58" laneDensity="16.64" occupancy="8.74" waitingTime="0.00" timeLoss="63.04" speed="5.73" speedRelative="0.69" departed="2" arrived="1" entered="66" left="67" laneChangedFrom="0" laneChangedTo="0" flow="356.73"/>
        <edge id="23271728#0" sampledSeconds="127.82" traveltime="7.55" overlapTraveltime="8.23" density="3.46" overlapDensity="3.78" laneDensity="3.46" occupancy="1.70" waitingTime="0.00" timeLoss="25.14" speed="6.65" speedRelative="0.80" departed="5" arrived="0" entered="11" left="16" laneChangedFrom="0" laneChangedTo="0" flow="81.99"/>
        <edge id="23271728#1" sampledSeconds="958.63" traveltime="50.09" overlapTraveltime="51.37" density="4.49" overlapDensity="4.59" laneDensity="4.49" occupancy="2.27" waitingTime="144.00" timeLoss="256.25" speed="6.08" speedRelative="0.73" departed="8" arrived="2" entered="11" left="14" laneChangedFrom="0" laneChangedTo="0" flow="99.07"/>
        <edge id="23271732#0" sampledSeconds="570.81" traveltime="51.23" overlapTraveltime="52.48" density="2.85" overlapDensity="2.92" laneDensity="2.85" occupancy="1.44" waitingTime="111.00" timeLoss="175.47" speed="5.58" speedRelative="0.67" departed="6" arrived="4" entered="5" left="7" laneChangedFrom="0" laneChangedTo="0" flow="57.67"/>
        <edge id="23271762#1" sampledSeconds="314.22" traveltime="3.25" overlapTraveltime="3.95" density="17.08" overlapDensity="20.84" laneDensity="17.08" occupancy="8.67" waitingTime="0.00" timeLoss="52.54" speed="6.88" speedRelative="0.83" departed="12" arrived="2" entered="70" left="80" laneChangedFrom="0" laneChangedTo="0" flow="419.50"/>
        <edge id="23271762#2" sampledSeconds="678.09" traveltime="9.03" overlapTraveltime="9.73" density="14.08" overlapDensity="15.16" laneDensity="14.08" occupancy="7.07" waitingTime="0.00" timeLoss="86.55" speed="7.27" speedRelative="0.87" departed="6" arrived="5" entered="65" left="64" laneChangedFrom="0" laneChangedTo="0" flow="369.42"/>
        <edge id="23271762#3" sampledSeconds="652.90" traveltime="11.33" overlapTraveltime="12.37" density="15.37" overlapDensity="16.77" laneDensity="15.37" occupancy="7.87" waitingTime="86.00" timeLoss="251.96" speed="5.03" speedRelative="0.60" departed="9" arrived="3" entered="45" left="50" laneChangedFrom="0" laneChangedTo="0" flow="279.53"/>
        <edge id="23271799#0" sampledSeconds="240.59" traveltime="29.99" overlapTraveltime="30.78" density="1.59" overlapDensity="1.64" laneDensity="1.59" occupancy="0.81" waitingTime="0.00" timeLoss="30.65" speed="7.18" speedRelative="0.86" departed="8" arrived="0" entered="0" left="8" laneChangedFrom="0" laneChangedTo="0" flow="41.35"/>
        <edge id="23271799#1" sampledSeconds="87.99" traveltime="12.08" overlapTraveltime="13.30" density="1.94" overlapDensity="2.12" laneDensity="1.94" occupancy="1.01" waitingTime="14.00" timeLoss="36.05" speed="4.97" speedRelative="0.60" departed="4" arrived="0" entered="3" left="6" laneChangedFrom="0" laneChangedTo="0" flow="35.28"/>
        <edge id="23276172#0" sampledSeconds="438.00" traveltime="15.43" overlapTraveltime="16.63" density="7.73" overlapDensity="8.29" laneDensity="7.73" occupancy="3.95" waitingTime="81.00" timeLoss="164.40" speed="4.97" speedRelative="0.60" departed="8" arrived="3" entered="19" left="23" laneChangedFrom="0" laneChangedTo="0" flow="140.15"/>
        <edge id="23276195#0" sampledSeconds="4353.38" traveltime="52.13" overlapTraveltime="53.08" density="51.41" overlapDensity="52.12" laneDensity="51.41" occupancy="25.71" waitingTime="2521.00" timeLoss="3116.77" speed="2.41" speedRelative="0.29" departed="4" arrived="3" entered="86" left="71" laneChangedFrom="0" laneChangedTo="0" flow="436.10"/>
        <edge id="23276536" sampledSeconds="405.61" traveltime="16.98" overlapTraveltime="17.92" density="4.53" overlapDensity="4.77" laneDensity="4.53" occupancy="2.29" waitingTime="0.00" timeLoss="55.65" speed="7.25" speedRelative="0.87" departed="8" arrived="4" entered="15" left="19" laneChangedFrom="0" laneChangedTo="0" flow="120.04"/>
        <edge id="23276545" sampledSeconds="1696.76" traveltime="67.65" overlapTraveltime="69.75" density="19.28" overlapDensity="19.63" laneDensity="19.28" occupancy="9.59" waitingTime="180.00" timeLoss="573.32" speed="1.89" speedRelative="0.68" departed="4" arrived="5" entered="23" left="16" laneChangedFrom="0" laneChangedTo="0" flow="130.40"/>
        <edge id="23276548" sampledSeconds="510.19" traveltime="50.88" overlapTraveltime="53.13" density="6.78" overlapDensity="6.89" laneDensity="6.78" occupancy="3.37" waitingTime="0.00" timeLoss="120.06" speed="2.14" speedRelative="0.77" departed="3" arrived="7" entered="7" left="3" laneChangedFrom="0" laneChangedTo="0" flow="52.20"/>
        <edge id="23276555" sampledSeconds="1306.45" traveltime="52.78" overlapTraveltime="54.58" density="23.53" overlapDensity="24.22" laneDensity="23.53" occupancy="11.75" waitingTime="337.00" timeLoss="623.97" speed="1.54" speedRelative="0.56" departed="4" arrived="2" entered="21" left="22" laneChangedFrom="0" laneChangedTo="0" flow="127.30"/>
        <edge id="23276726#0" sampledSeconds="61.98" traveltime="30.43" overlapTraveltime="31.04" density="0.34" overlapDensity="0.35" laneDensity="0.34" occupancy="0.17" waitingTime="0.00" timeLoss="4.58" speed="8.62" speedRelative="1.03" departed="0" arrived="2" entered="2" left="0" laneChangedFrom="0" laneChangedTo="0" flow="10.59"/>
        <edge id="23276766#0" sampledSeconds="747.90" traveltime="6.91" overlapTraveltime="7.90" density="47.50" overlapDensity="54.15" laneDensity="47.50" occupancy="24.28" waitingTime="281.00" timeLoss="456.63" speed="3.20" speedRelative="0.38" departed="4" arrived="2" entered="93" left="92" laneChangedFrom="0" laneChangedTo="0" flow="502.27"/>
        <edge id="23276766#1" sampledSeconds="492.13" traveltime="19.73" overlapTraveltime="20.93" density="5.24" overlapDensity="5.55" laneDensity="5.24" occupancy="2.67" waitingTime="11.00" timeLoss="95.25" speed="6.47" speedRelative="0.78" departed="11" arrived="3" entered="13" left="21" laneChangedFrom="0" laneChangedTo="0" flow="124.78"/>
        <edge id="23276766#3" sampledSeconds="253.90" traveltime="16.63" overlapTraveltime="17.31" density="3.06" overlapDensity="3.18" laneDensity="3.06" occupancy="1.54" waitingTime="0.00" timeLoss="32.55" speed="7.08" speedRelative="0.85" departed="7" arrived="2" entered="8" left="13" laneChangedFrom="0" laneChangedTo="0" flow="77.80"/>
        <edge id="23295986#0" sampledSeconds="758.20" traveltime="19.92" overlapTraveltime="21.06" density="25.37" overlapDensity="26.45" laneDensity="8.46" occupancy="4.28" waitingTime="500.00" timeLoss="630.61" speed="2.24" speedRelative="0.16" departed="5" arrived="2" entered="33" left="31" laneChangedFrom="26" laneChangedTo="26" flow="193.20"/>
        <edge id="23296952#0" sampledSeconds="1447.17" traveltime="25.12" overlapTraveltime="25.90" density="12.52" overlapDensity="12.90" laneDensity="12.52" occupancy="6.27" waitingTime="0.00" timeLoss="313.40" speed="6.56" speedRelative="0.79" departed="4" arrived="1" entered="52" left="55" laneChangedFrom="0" laneChangedTo="0" flow="295.82"/>
        <edge id="237638594#0" sampledSeconds="65.80" traveltime="13.19" overlapTraveltime="13.89" density="0.99" overlapDensity="1.05" laneDensity="0.99" occupancy="0.51" waitingTime="0.00" timeLoss="11.60" speed="7.01" speedRelative="0.84" departed="5" arrived="0" entered="0" left="5" laneChangedFrom="0" laneChangedTo="0" flow="25.01"/>
        <edge id="237638594#1" sampledSeconds="539.93" traveltime="26.40" overlapTraveltime="27.04" density="3.83" overlapDensity="3.92" laneDensity="3.83" occupancy="1.92" waitingTime="0.00" timeLoss="52.76" speed="7.67" speedRelative="0.92" departed="8" arrived="4" entered="13" left="16" laneChangedFrom="0" laneChangedTo="0" flow="105.82"/>
        <edge id="237638594#2" sampledSeconds="1208.00" traveltime="21.86" overlapTraveltime="22.92" density="12.24" overlapDensity="12.79" laneDensity="12.24" occupancy="6.15" waitingTime="97.00" timeLoss="290.45" speed="6.28" speedRelative="0.75" departed="5" arrived="10" entered="49" left="42" laneChangedFrom="0" laneChangedTo="0" flow="279.93"/>
        <edge id="23837909#0" sampledSeconds="82.78" traveltime="20.29" overlapTraveltime="20.70" density="0.47" overlapDensity="0.48" laneDensity="0.16" occupancy="0.08" waitingTime="0.00" timeLoss="4.05" speed="12.58" speedRelative="0.91" departed="0" arrived="4" entered="4" left="0" laneChangedFrom="0" laneChangedTo="0" flow="21.18"/>
        <edge id="23837911#0" sampledSeconds="38.21" traveltime="2.29" overlapTraveltime="2.79" density="2.92" overlapDensity="3.77" laneDensity="0.97" occupancy="0.53" waitingTime="0.00" timeLoss="18.63" speed="7.13" speedRelative="0.51" departed="7" arrived="0" entered="9" left="15" laneChangedFrom="0" laneChangedTo="0" flow="68.46"/>
        <edge id="23837911#1" sampledSeconds="664.38" traveltime="16.65" overlapTraveltime="17.05" density="4.40" overlapDensity="4.50" laneDensity="1.47" occupancy="0.73" waitingTime="0.00" timeLoss="41.51" speed="13.02" speedRelative="0.94" departed="1" arrived="1" entered="38" left="38" laneChangedFrom="54" laneChangedTo="54" flow="206.35"/>
        <edge id="23837911#4" sampledSeconds="2018.97" traveltime="43.82" overlapTraveltime="45.14" density="28.03" overlapDensity="28.69" laneDensity="9.34" occupancy="4.71" waitingTime="1386.00" timeLoss="1668.32" speed="2.40" speedRelative="0.17" departed="6" arrived="0" entered="42" left="39" laneChangedFrom="35" laneChangedTo="35" flow="238.28"/>
        <edge id="292179033#0" sampledSeconds="2756.14" traveltime="22.46" overlapTraveltime="23.33" density="58.78" overlapDensity="60.82" laneDensity="19.59" occupancy="9.85" waitingTime="1673.00" timeLoss="2149.01" speed="3.07" speedRelative="0.22" departed="8" arrived="1" entered="116" left="113" laneChangedFrom="129" laneChangedTo="129" flow="627.91"/>
        <edge id="292179033#4" sampledSeconds="3252.22" traveltime="25.84" overlapTraveltime="26.43" density="56.49" overlapDensity="57.55" laneDensity="18.83" occupancy="9.41" waitingTime="2245.00" timeLoss="2459.18" speed="3.33" speedRelative="0.24" departed="6" arrived="7" entered="123" left="111" laneChangedFrom="47" laneChangedTo="47" flow="654.01"/>
        <edge id="292179033#6" sampledSeconds="8646.65" traveltime="73.22" overlapTraveltime="76.07" density="107.15" overlapDensity="110.32" laneDensity="35.72" occupancy="18.00" waitingTime="6617.00" timeLoss="7668.56" speed="1.58" speedRelative="0.11" departed="14" arrived="4" entered="122" left="88" laneChangedFrom="94" laneChangedTo="94" flow="607.24"/>
        <edge id="292179033#7" sampledSeconds="2758.85" traveltime="29.69" overlapTraveltime="30.63" density="141.35" overlapDensity="144.85" laneDensity="47.12" occupancy="22.55" waitingTime="2286.00" timeLoss="2540.97" speed="1.08" speedRelative="0.08" departed="6" arrived="5" entered="90" left="83" laneChangedFrom="30" laneChangedTo="30" flow="480.01"/>
        <edge id="292179033#9" sampledSeconds="5879.02" traveltime="64.92" overlapTraveltime="71.09" density="93.09" overlapDensity="101.55" laneDensity="31.03" occupancy="16.01" waitingTime="4421.00" timeLoss="5349.35" speed="1.27" speedRelative="0.09" departed="9" arrived="5" entered="80" left="73" laneChangedFrom="16" laneChangedTo="16" flow="439.54"/>
        <edge id="30814311#0" sampledSeconds="421.50" traveltime="28.41" overlapTraveltime="29.13" density="2.96" overlapDensity="3.02" laneDensity="2.96" occupancy="1.48" waitingTime="0.00" timeLoss="48.36" speed="7.21" speedRelative="0.87" departed="6" arrived="4" entered="9" left="10" laneChangedFrom="0" laneChangedTo="0" flow="76.86"/>