<?xml version="1.0" encoding="UTF-8"?>

<!-- generated on 2026-03-26T12:30:48.692766+01:00 by Eclipse SUMO GUI v1_26_0+0818-8fa21e3b56a
<sumoConfiguration xmlns:xsi="http://www.w3.org/2001/XMLSchema-instance" xsi:noNamespaceSchemaLocation="http://sumo.dlr.de/xsd/sumoConfiguration.xsd">

    <input>
        <net-file value="/Users/raffaele/PycharmProjects/TrafficAgenticAi/Simulazione Sumo/Prova_VialeAldini/osm.net.xml.gz"/>
        <route-files value="/Users/raffaele/PycharmProjects/TrafficAgenticAi/Simulazione Sumo/Prova_VialeAldini/heavy.rou.xml"/>
        <additional-files value="/Users/raffaele/PycharmProjects/TrafficAgenticAi/Simulazione Sumo/Prova_VialeAldini/rilevazioni/output.add.xml"/>
    </input>

    <output>
        <tripinfo-output value="/Users/raffaele/PycharmProjects/TrafficAgenticAi/Simulazione Sumo/Prova_VialeAldini/output/tripinfos.xml"/>
        <statistic-output value="/Users/raffaele/PycharmProjects/TrafficAgenticAi/Simulazione Sumo/Prova_VialeAldini/output/stats.xml"/>
    </output>

    <processing>
        <ignore-route-errors value="true"/>
        <tls.actuated.jam-threshold value="30"/>
    </processing>

    <routing>
        <device.rerouting.adaptation-steps value="18"/>
        <device.rerouting.adaptation-interval value="10"/>
    </routing>

    <report>
        <verbose value="true"/>
        <duration-log.statistics value="true"/>
        <no-step-log value="true"/>
    </report>

    <traci_server>
        <remote-port value="55723"/>
    </traci_server>

    <gui_only>
        <gui-settings-file value="/Users/raffaele/PycharmProjects/TrafficAgenticAi/Simulazione Sumo/Prova_VialeAldini/osm.view.xml"/>
    </gui_only>

</sumoConfiguration>
-->

<meandata xmlns:xsi="http://www.w3.org/2001/XMLSchema-instance" xsi:noNamespaceSchemaLocation="http://sumo.dlr.de/xsd/meandata_file.xsd">
    <interval begin="0.00" end="244.00" id="wizard_example">
        <edge id="-1023996215#2" sampledSeconds="186.82" traveltime="20.46" overlapTraveltime="21.16" density="5.30" overlapDensity="5.47" laneDensity="5.30" occupancy="2.67" waitingTime="0.00" timeLoss="21.65" speed="6.85" speedRelative="0.82" departed="4" arrived="1" entered="5" left="8" laneChangedFrom="0" laneChangedTo="0" flow="130.64"/>
        <edge id="-103538896" sampledSeconds="0.00" departed="0" arrived="0" entered="0" left="0" laneChangedFrom="0" laneChangedTo="0"/>
        <edge id="-1103834241" sampledSeconds="67.31" traveltime="5.99" overlapTraveltime="7.59" density="6.19" overlapDensity="7.85" laneDensity="6.19" occupancy="3.34" waitingTime="0.00" timeLoss="15.24" speed="5.29" speedRelative="0.64" departed="1" arrived="1" entered="8" left="8" laneChangedFrom="0" laneChangedTo="0" flow="130.65"/>
        <edge id="-170687890" sampledSeconds="97.32" traveltime="24.05" overlapTraveltime="25.15" density="2.51" overlapDensity="2.63" laneDensity="2.51" occupancy="1.29" waitingTime="11.00" timeLoss="26.81" speed="6.24" speedRelative="0.75" departed="4" arrived="0" entered="0" left="4" laneChangedFrom="0" laneChangedTo="0" flow="57.04"/>
        <edge id="-171520872#1" sampledSeconds="207.72" traveltime="103.60" overlapTraveltime="105.65" density="3.43" overlapDensity="3.44" laneDensity="3.43" occupancy="1.70" waitingTime="0.00" timeLoss="44.79" speed="2.39" speedRelative="0.86" departed="0" arrived="2" entered="2" left="0" laneChangedFrom="0" laneChangedTo="0" flow="29.51"/>
        <edge id="-23185949" sampledSeconds="27.42" traveltime="1.54" overlapTraveltime="4.84" density="133.33" overlapDensity="133.33" laneDensity="133.33" occupancy="9.20" waitingTime="19.96" timeLoss="23.76" speed="1.07" speedRelative="0.13" departed="0" arrived="1" entered="6" left="5" laneChangedFrom="0" laneChangedTo="0" flow="62.53"/>
        <edge id="-23276766#0" sampledSeconds="22.75" traveltime="2.62" overlapTraveltime="3.25" density="3.67" overlapDensity="4.56" laneDensity="3.67" occupancy="1.83" waitingTime="0.00" timeLoss="1.47" speed="7.83" speedRelative="0.94" departed="0" arrived="1" entered="7" left="6" laneChangedFrom="0" laneChangedTo="0" flow="103.28"/>
        <edge id="-23276766#2" sampledSeconds="201.63" traveltime="17.61" overlapTraveltime="18.33" density="6.04" overlapDensity="6.29" laneDensity="6.04" occupancy="3.00" waitingTime="0.00" timeLoss="19.58" speed="7.44" speedRelative="0.89" departed="0" arrived="1" entered="11" left="10" laneChangedFrom="0" laneChangedTo="0" flow="162.30"/>
        <edge id="-23296952#2" sampledSeconds="739.17" traveltime="32.98" overlapTraveltime="34.20" density="17.85" overlapDensity="18.33" laneDensity="17.85" occupancy="8.96" waitingTime="160.00" timeLoss="292.65" speed="4.98" speedRelative="0.60" departed="2" arrived="1" entered="24" left="14" laneChangedFrom="0" laneChangedTo="0" flow="322.13"/>
        <edge id="-237638594#0" sampledSeconds="0.00" departed="0" arrived="0" entered="0" left="0" laneChangedFrom="0" laneChangedTo="0"/>
        <edge id="-237638594#1" sampledSeconds="161.30" traveltime="26.82" overlapTraveltime="27.46" density="3.25" overlapDensity="3.33" laneDensity="3.25" occupancy="1.64" waitingTime="0.00" timeLoss="18.33" speed="7.42" speedRelative="0.89" departed="5" arrived="1" entered="1" left="5" laneChangedFrom="0" laneChangedTo="0" flow="86.63"/>
        <edge id="-237638594#3" sampledSeconds="279.41" traveltime="19.72" overlapTraveltime="20.95" density="7.79" overlapDensity="8.23" laneDensity="7.79" occupancy="3.97" waitingTime="6.00" timeLoss="47.85" speed="6.88" speedRelative="0.83" departed="9" arrived="1" entered="8" left="11" laneChangedFrom="0" laneChangedTo="0" flow="197.93"/>
        <edge id="-30814311#1" sampledSeconds="184.01" traveltime="25.69" overlapTraveltime="26.48" density="3.78" overlapDensity="3.90" laneDensity="3.78" occupancy="1.90" waitingTime="0.00" timeLoss="20.79" speed="7.49" speedRelative="0.90" departed="2" arrived="0" entered="5" left="7" laneChangedFrom="0" laneChangedTo="0" flow="102.50"/>
        <edge id="-30824033#1" sampledSeconds="116.32" traveltime="17.99" overlapTraveltime="19.04" density="3.55" overlapDensity="3.71" laneDensity="3.55" occupancy="1.78" waitingTime="0.00" timeLoss="15.21" speed="7.02" speedRelative="0.84" departed="2" arrived="2" entered="5" left="3" laneChangedFrom="0" laneChangedTo="0" flow="91.28"/>
        <edge id="-30824033#5" sampledSeconds="438.84" traveltime="23.37" overlapTraveltime="24.44" density="10.76" overlapDensity="11.16" laneDensity="10.76" occupancy="5.45" waitingTime="3.00" timeLoss="73.78" speed="6.80" speedRelative="0.82" departed="13" arrived="2" entered="9" left="12" laneChangedFrom="0" laneChangedTo="0" flow="267.37"/>
        <edge id="-33523355#1" sampledSeconds="88.71" traveltime="4.81" overlapTraveltime="5.64" density="9.45" overlapDensity="11.02" laneDensity="9.45" occupancy="4.73" waitingTime="0.00" timeLoss="17.89" speed="6.73" speedRelative="0.81" departed="1" arrived="1" entered="15" left="14" laneChangedFrom="0" laneChangedTo="0" flow="233.46"/>
        <edge id="-33523355#2" sampledSeconds="91.04" traveltime="7.63" overlapTraveltime="8.28" density="6.02" overlapDensity="6.53" laneDensity="6.02" occupancy="2.98" waitingTime="0.00" timeLoss="9.26" speed="7.51" speedRelative="0.90" departed="0" arrived="0" entered="11" left="11" laneChangedFrom="0" laneChangedTo="0" flow="162.30"/>
        <edge id="-33523355#3" sampledSeconds="77.91" traveltime="5.82" overlapTraveltime="7.91" density="6.20" overlapDensity="8.34" laneDensity="6.20" occupancy="3.58" waitingTime="12.00" timeLoss="24.39" speed="5.47" speedRelative="0.66" departed="1" arrived="1" entered="10" left="9" laneChangedFrom="0" laneChangedTo="0" flow="146.92"/>
        <edge id="-33523355#4" sampledSeconds="114.63" traveltime="10.76" overlapTraveltime="11.53" density="5.73" overlapDensity="6.14" laneDensity="5.73" occupancy="2.87" waitingTime="0.00" timeLoss="13.13" speed="7.07" speedRelative="0.85" departed="1" arrived="0" entered="9" left="10" laneChangedFrom="0" laneChangedTo="0" flow="146.56"/>
        <edge id="-33523578#2" sampledSeconds="27.77" traveltime="6.92" overlapTraveltime="7.55" density="2.42" overlapDensity="2.67" laneDensity="2.42" occupancy="1.24" waitingTime="0.00" timeLoss="7.21" speed="6.31" speedRelative="0.76" departed="3" arrived="0" entered="1" left="4" laneChangedFrom="0" laneChangedTo="0" flow="53.72"/>
        <edge id="-37711918" sampledSeconds="12.15" traveltime="6.34" overlapTraveltime="7.00" density="1.31" overlapDensity="1.49" laneDensity="1.31" occupancy="0.70" waitingTime="0.00" timeLoss="4.30" speed="5.50" speedRelative="0.66" departed="2" arrived="0" entered="0" left="2" laneChangedFrom="0" laneChangedTo="0" flow="25.02"/>
        <edge id="-379112060#2" sampledSeconds="114.46" traveltime="10.05" overlapTraveltime="11.34" density="57.99" overlapDensity="65.06" laneDensity="57.99" occupancy="29.30" waitingTime="75.00" timeLoss="96.19" speed="1.08" speedRelative="0.13" departed="1" arrived="0" entered="10" left="10" laneChangedFrom="0" laneChangedTo="0" flow="149.81"/>
        <edge id="-38592259" sampledSeconds="9.95" traveltime="10.82" overlapTraveltime="12.50" density="1.65" overlapDensity="2.03" laneDensity="1.65" occupancy="0.94" waitingTime="4.00" timeLoss="7.76" speed="2.00" speedRelative="0.24" departed="1" arrived="0" entered="0" left="1" laneChangedFrom="0" laneChangedTo="0" flow="11.00"/>
        <edge id="-455829556#2" sampledSeconds="14.67" traveltime="14.05" overlapTraveltime="14.67" density="0.49" overlapDensity="0.51" laneDensity="0.49" occupancy="0.24" waitingTime="0.00" timeLoss="1.18" speed="8.40" speedRelative="1.01" departed="0" arrived="1" entered="1" left="0" laneChangedFrom="0" laneChangedTo="0" flow="14.75"/>
        <edge id="-65292475" sampledSeconds="0.00" departed="0" arrived="0" entered="0" left="0" laneChangedFrom="0" laneChangedTo="0"/>
        <edge id="-685037225#1" sampledSeconds="132.23" traveltime="11.92" overlapTraveltime="12.83" density="7.16" overlapDensity="7.63" laneDensity="7.16" occupancy="3.70" waitingTime="0.00" timeLoss="30.13" speed="5.92" speedRelative="0.71" departed="13" arrived="0" entered="0" left="9" laneChangedFrom="0" laneChangedTo="0" flow="153.40"/>
        <edge id="-808547875" sampledSeconds="169.00" overlapTraveltime="100000.00" density="266.67" overlapDensity="266.67" laneDensity="133.33" occupancy="34.63" waitingTime="169.00" timeLoss="169.00" speed="0.00" speedRelative="0.00" departed="1" arrived="0" entered="0" left="0" laneChangedFrom="0" laneChangedTo="0" flow="0.00"/>
        <edge id="-945850922" sampledSeconds="120.39" traveltime="16.66" overlapTraveltime="17.50" density="3.87" overlapDensity="4.07" laneDensity="3.87" occupancy="1.96" waitingTime="0.00" timeLoss="15.63" speed="7.22" speedRelative="0.87" departed="3" arrived="0" entered="4" left="7" laneChangedFrom="0" laneChangedTo="0" flow="101.42"/>
        <edge id="1023996215#0" sampledSeconds="369.42" traveltime="20.89" overlapTraveltime="21.78" density="10.28" overlapDensity="10.66" laneDensity="10.28" occupancy="5.16" waitingTime="14.00" timeLoss="70.84" speed="6.75" speedRelative="0.81" departed="3" arrived="3" entered="18" left="12" laneChangedFrom="0" laneChangedTo="0" flow="251.74"/>
        <edge id="103538896" sampledSeconds="108.13" traveltime="16.21" overlapTraveltime="16.87" density="3.75" overlapDensity="3.87" laneDensity="3.75" occupancy="1.91" waitingTime="0.00" timeLoss="22.15" speed="7.08" speedRelative="0.85" departed="10" arrived="0" entered="0" left="5" laneChangedFrom="0" laneChangedTo="0" flow="95.46"/>
        <edge id="1067121593#0" sampledSeconds="607.24" traveltime="27.22" overlapTraveltime="28.66" density="16.24" overlapDensity="16.87" laneDensity="16.24" occupancy="8.19" waitingTime="94.00" timeLoss="216.97" speed="5.32" speedRelative="0.64" departed="11" arrived="2" entered="16" left="11" laneChangedFrom="0" laneChangedTo="0" flow="316.82"/>
        <edge id="1103834241" sampledSeconds="128.72" traveltime="5.85" overlapTraveltime="6.52" density="12.65" overlapDensity="14.04" laneDensity="12.65" occupancy="6.25" waitingTime="0.00" timeLoss="28.06" speed="6.53" speedRelative="0.78" departed="6" arrived="2" entered="16" left="18" laneChangedFrom="0" laneChangedTo="0" flow="292.76"/>
        <edge id="1221422471" sampledSeconds="0.00" departed="0" arrived="0" entered="0" left="0" laneChangedFrom="0" laneChangedTo="0"/>
        <edge id="135982476#0" sampledSeconds="80.85" traveltime="20.28" overlapTraveltime="20.67" density="1.45" overlapDensity="1.48" laneDensity="0.48" occupancy="0.24" waitingTime="0.00" timeLoss="14.13" speed="11.04" speedRelative="0.80" departed="4" arrived="0" entered="0" left="4" laneChangedFrom="0" laneChangedTo="0" flow="57.67"/>
        <edge id="135982476#3" sampledSeconds="129.06" traveltime="8.94" overlapTraveltime="9.33" density="5.45" overlapDensity="5.67" laneDensity="1.82" occupancy="0.91" waitingTime="0.00" timeLoss="30.51" speed="10.54" speedRelative="0.76" departed="9" arrived="2" entered="7" left="11" laneChangedFrom="7" laneChangedTo="7" flow="204.86"/>
        <edge id="1462715258" sampledSeconds="0.00" departed="0" arrived="0" entered="0" left="0" laneChangedFrom="0" laneChangedTo="0"/>
        <edge id="1467263794#0" sampledSeconds="220.80" traveltime="9.50" overlapTraveltime="9.88" density="7.62" overlapDensity="7.92" laneDensity="2.54" occupancy="1.25" waitingTime="0.00" timeLoss="26.78" speed="12.06" speedRelative="0.87" departed="0" arrived="0" entered="23" left="22" laneChangedFrom="11" laneChangedTo="11" flow="329.81"/>
        <edge id="1467263796#0" sampledSeconds="88.87" traveltime="17.47" overlapTraveltime="17.83" density="1.51" overlapDensity="1.54" laneDensity="0.50" occupancy="0.25" waitingTime="0.00" timeLoss="6.45" speed="13.55" speedRelative="0.98" departed="0" arrived="5" entered="5" left="0" laneChangedFrom="0" laneChangedTo="0" flow="73.77"/>
        <edge id="1467263797#0" sampledSeconds="1805.07" traveltime="46.86" overlapTraveltime="48.43" density="77.51" overlapDensity="79.21" laneDensity="25.84" occupancy="12.86" waitingTime="862.00" timeLoss="1539.32" speed="2.03" speedRelative="0.15" departed="2" arrived="1" entered="45" left="29" laneChangedFrom="6" laneChangedTo="6" flow="556.02"/>
        <edge id="1467263798#0" sampledSeconds="54.48" traveltime="7.56" overlapTraveltime="8.22" density="4.10" overlapDensity="4.49" laneDensity="4.10" occupancy="2.10" waitingTime="0.00" timeLoss="10.55" speed="6.66" speedRelative="0.80" departed="4" arrived="1" entered="3" left="6" laneChangedFrom="0" laneChangedTo="0" flow="97.23"/>
        <edge id="1472800673#0" sampledSeconds="40.89" traveltime="19.87" overlapTraveltime="20.97" density="0.80" overlapDensity="0.84" laneDensity="0.27" occupancy="0.14" waitingTime="0.00" timeLoss="13.09" speed="9.70" speedRelative="0.70" departed="2" arrived="0" entered="0" left="2" laneChangedFrom="0" laneChangedTo="0" flow="28.75"/>
        <edge id="1472850568#0" sampledSeconds="291.76" traveltime="17.66" overlapTraveltime="18.89" density="17.18" overlapDensity="17.96" laneDensity="5.73" occupancy="2.90" waitingTime="144.00" timeLoss="210.22" speed="3.79" speedRelative="0.27" departed="2" arrived="1" entered="15" left="11" laneChangedFrom="14" laneChangedTo="14" flow="233.17"/>
        <edge id="1472850569#0" sampledSeconds="155.49" traveltime="4.79" overlapTraveltime="5.72" density="10.56" overlapDensity="12.49" laneDensity="3.52" occupancy="1.82" waitingTime="9.00" timeLoss="42.62" speed="9.80" speedRelative="0.71" departed="2" arrived="1" entered="26" left="25" laneChangedFrom="17" laneChangedTo="17" flow="404.59"/>
        <edge id="1472850569#1" sampledSeconds="537.44" traveltime="23.97" overlapTraveltime="24.96" density="8.30" overlapDensity="8.63" laneDensity="2.77" occupancy="1.40" waitingTime="49.00" timeLoss="127.54" speed="10.42" speedRelative="0.75" departed="3" arrived="1" entered="23" left="20" laneChangedFrom="28" laneChangedTo="28" flow="318.09"/>
        <edge id="170687890" sampledSeconds="2.47" traveltime="20.13" overlapTraveltime="20.81" density="0.07" overlapDensity="0.07" laneDensity="0.07" occupancy="0.03" waitingTime="0.00" timeLoss="0.34" speed="7.30" speedRelative="0.88" departed="0" arrived="0" entered="1" left="0" laneChangedFrom="0" laneChangedTo="0" flow="1.81"/>
        <edge id="171520872#0" sampledSeconds="0.00" departed="0" arrived="0" entered="0" left="0" laneChangedFrom="0" laneChangedTo="0"/>
        <edge id="210196700#0" sampledSeconds="0.00" departed="0" arrived="0" entered="0" left="0" laneChangedFrom="0" laneChangedTo="0"/>
        <edge id="23185949" sampledSeconds="45.92" traveltime="0.84" overlapTraveltime="1.77" density="133.33" overlapDensity="133.33" laneDensity="133.33" occupancy="14.35" waitingTime="17.53" timeLoss="29.89" speed="2.93" speedRelative="0.35" departed="3" arrived="0" entered="23" left="26" laneChangedFrom="0" laneChangedTo="0" flow="113.70"/>
        <edge id="232512837#0" sampledSeconds="0.00" departed="0" arrived="0" entered="0" left="0" laneChangedFrom="0" laneChangedTo="0"/>
        <edge id="23271710" sampledSeconds="510.58" traveltime="17.75" overlapTraveltime="18.57" density="16.33" overlapDensity="17.04" laneDensity="16.33" occupancy="8.06" waitingTime="0.00" timeLoss="77.73" speed="6.88" speedRelative="0.83" departed="4" arrived="1" entered="26" left="25" laneChangedFrom="0" laneChangedTo="0" flow="406.66"/>
        <edge id="23271717" sampledSeconds="77.33" traveltime="2.74" overlapTraveltime="3.72" density="14.06" overlapDensity="19.17" laneDensity="14.06" occupancy="7.38" waitingTime="0.00" timeLoss="18.13" speed="5.78" speedRelative="0.69" departed="1" arrived="0" entered="20" left="21" laneChangedFrom="0" laneChangedTo="0" flow="305.28"/>
        <edge id="23271728#0" sampledSeconds="12.57" traveltime="7.69" overlapTraveltime="8.38" density="0.98" overlapDensity="1.04" laneDensity="0.98" occupancy="0.49" waitingTime="0.00" timeLoss="2.63" speed="6.53" speedRelative="0.78" departed="1" arrived="0" entered="1" left="1" laneChangedFrom="0" laneChangedTo="0" flow="22.88"/>
        <edge id="23271728#1" sampledSeconds="201.54" traveltime="45.82" overlapTraveltime="46.77" density="2.64" overlapDensity="2.69" laneDensity="2.64" occupancy="1.33" waitingTime="0.00" timeLoss="29.42" speed="6.67" speedRelative="0.80" departed="8" arrived="0" entered="0" left="4" laneChangedFrom="0" laneChangedTo="0" flow="63.66"/>
        <edge id="23271732#0" sampledSeconds="277.49" traveltime="46.43" overlapTraveltime="47.45" density="3.92" overlapDensity="3.95" laneDensity="3.92" occupancy="1.97" waitingTime="20.00" timeLoss="76.94" speed="6.17" speedRelative="0.74" departed="12" arrived="0" entered="1" left="1" laneChangedFrom="0" laneChangedTo="0" flow="87.53"/>
        <edge id="23271762#1" sampledSeconds="93.01" traveltime="3.66" overlapTraveltime="4.32" density="14.32" overlapDensity="17.19" laneDensity="14.32" occupancy="7.41" waitingTime="0.00" timeLoss="22.38" speed="6.29" speedRelative="0.76" departed="10" arrived="0" entered="14" left="23" laneChangedFrom="0" laneChangedTo="0" flow="312.76"/>
        <edge id="23271762#2" sampledSeconds="184.91" traveltime="8.92" overlapTraveltime="9.65" density="10.66" overlapDensity="11.52" laneDensity="10.66" occupancy="5.35" waitingTime="0.00" timeLoss="23.80" speed="7.34" speedRelative="0.88" departed="1" arrived="0" entered="19" left="19" laneChangedFrom="0" laneChangedTo="0" flow="283.04"/>
        <edge id="23271762#3" sampledSeconds="184.98" traveltime="11.31" overlapTraveltime="12.54" density="11.93" overlapDensity="13.24" laneDensity="11.93" occupancy="6.17" waitingTime="24.00" timeLoss="73.53" speed="4.96" speedRelative="0.60" departed="3" arrived="0" entered="12" left="15" laneChangedFrom="0" laneChangedTo="0" flow="217.37"/>
        <edge id="23271799#0" sampledSeconds="184.01" traveltime="31.28" overlapTraveltime="32.00" density="3.46" overlapDensity="3.49" laneDensity="3.46" occupancy="1.74" waitingTime="0.00" timeLoss="32.23" speed="6.91" speedRelative="0.83" departed="11" arrived="0" entered="0" left="2" laneChangedFrom="0" laneChangedTo="0" flow="86.12"/>
        <edge id="23271799#1" sampledSeconds="25.05" traveltime="11.69" overlapTraveltime="13.03" density="1.50" overlapDensity="1.68" laneDensity="1.50" occupancy="0.79" waitingTime="3.00" timeLoss="10.03" speed="5.08" speedRelative="0.61" departed="1" arrived="0" entered="1" left="2" laneChangedFrom="0" laneChangedTo="0" flow="28.28"/>
        <edge id="23276172#0" sampledSeconds="240.15" traveltime="17.29" overlapTraveltime="18.49" density="12.02" overlapDensity="12.67" laneDensity="12.02" occupancy="6.12" waitingTime="44.00" timeLoss="107.09" speed="4.47" speedRelative="0.54" departed="10" arrived="1" entered="7" left="10" laneChangedFrom="0" laneChangedTo="0" flow="194.40"/>
        <edge id="23276195#0" sampledSeconds="656.56" traveltime="26.82" overlapTraveltime="27.69" density="21.24" overlapDensity="21.91" laneDensity="21.24" occupancy="10.66" waitingTime="163.00" timeLoss="296.15" speed="4.62" speedRelative="0.55" departed="1" arrived="0" entered="24" left="23" laneChangedFrom="0" laneChangedTo="0" flow="350.26"/>
        <edge id="23276536" sampledSeconds="195.60" traveltime="17.70" overlapTraveltime="18.38" density="6.21" overlapDensity="6.41" laneDensity="6.21" occupancy="3.13" waitingTime="0.00" timeLoss="32.41" speed="7.07" speedRelative="0.85" departed="11" arrived="0" entered="3" left="9" laneChangedFrom="0" laneChangedTo="0" flow="158.02"/>
        <edge id="23276545" sampledSeconds="384.94" traveltime="60.64" overlapTraveltime="62.45" density="12.22" overlapDensity="12.41" laneDensity="12.22" occupancy="6.03" waitingTime="1.00" timeLoss="94.58" speed="2.12" speedRelative="0.76" departed="2" arrived="0" entered="7" left="4" laneChangedFrom="0" laneChangedTo="0" flow="92.20"/>
        <edge id="23276548" sampledSeconds="51.81" traveltime="51.22" overlapTraveltime="53.58" density="1.93" overlapDensity="1.95" laneDensity="1.93" occupancy="0.95" waitingTime="0.00" timeLoss="13.06" speed="2.12" speedRelative="0.76" departed="0" arrived="1" entered="1" left="0" laneChangedFrom="0" laneChangedTo="0" flow="14.75"/>
        <edge id="23276555" sampledSeconds="294.67" traveltime="47.11" overlapTraveltime="49.30" density="15.01" overlapDensity="15.23" laneDensity="15.01" occupancy="7.47" waitingTime="39.00" timeLoss="114.17" speed="1.71" speedRelative="0.62" departed="7" arrived="0" entered="3" left="3" laneChangedFrom="0" laneChangedTo="0" flow="90.95"/>
        <edge id="23276726#0" sampledSeconds="0.00" departed="0" arrived="0" entered="0" left="0" laneChangedFrom="0" laneChangedTo="0"/>
        <edge id="23276766#0" sampledSeconds="126.41" traveltime="4.09" overlapTraveltime="5.13" density="20.42" overlapDensity="25.51" laneDensity="20.42" occupancy="10.80" waitingTime="13.00" timeLoss="51.75" speed="4.93" speedRelative="0.59" departed="0" arrived="0" entered="25" left="24" laneChangedFrom="0" laneChangedTo="0" flow="365.52"/>
        <edge id="23276766#1" sampledSeconds="189.94" traveltime="21.58" overlapTraveltime="22.98" density="5.64" overlapDensity="5.97" laneDensity="5.64" occupancy="2.89" waitingTime="12.00" timeLoss="45.52" speed="5.90" speedRelative="0.71" departed="9" arrived="0" entered="3" left="7" laneChangedFrom="0" laneChangedTo="0" flow="122.69"/>
        <edge id="23276766#3" sampledSeconds="68.10" traveltime="16.62" overlapTraveltime="17.26" density="2.30" overlapDensity="2.37" laneDensity="2.30" occupancy="1.15" waitingTime="0.00" timeLoss="8.78" speed="7.10" speedRelative="0.85" departed="2" arrived="1" entered="3" left="3" laneChangedFrom="0" laneChangedTo="0" flow="58.58"/>
        <edge id="23295986#0" sampledSeconds="184.49" traveltime="7.66" overlapTraveltime="8.42" density="16.32" overlapDensity="17.94" laneDensity="5.44" occupancy="2.79" waitingTime="57.00" timeLoss="106.97" speed="5.60" speedRelative="0.40" departed="3" arrived="1" entered="20" left="21" laneChangedFrom="11" laneChangedTo="11" flow="323.26"/>
        <edge id="23296952#0" sampledSeconds="737.67" traveltime="23.03" overlapTraveltime="23.80" density="17.77" overlapDensity="18.33" laneDensity="17.77" occupancy="8.87" waitingTime="0.00" timeLoss="102.61" speed="7.14" speedRelative="0.86" departed="0" arrived="0" entered="32" left="29" laneChangedFrom="0" laneChangedTo="0" flow="458.12"/>
        <edge id="237638594#0" sampledSeconds="0.00" departed="0" arrived="0" entered="0" left="0" laneChangedFrom="0" laneChangedTo="0"/>
        <edge id="237638594#1" sampledSeconds="88.43" traveltime="26.17" overlapTraveltime="26.79" density="1.75" overlapDensity="1.79" laneDensity="1.75" occupancy="0.88" waitingTime="0.00" timeLoss="11.72" speed="7.74" speedRelative="0.93" departed="4" arrived="2" entered="2" left="1" laneChangedFrom="0" laneChangedTo="0" flow="48.85"/>
        <edge id="237638594#2" sampledSeconds="381.19" traveltime="20.83" overlapTraveltime="21.86" density="10.79" overlapDensity="11.25" laneDensity="10.79" occupancy="5.42" waitingTime="6.00" timeLoss="70.26" speed="6.58" speedRelative="0.79" departed="7" arrived="1" entered="14" left="14" laneChangedFrom="0" laneChangedTo="0" flow="259.04"/>
        <edge id="23837909#0" sampledSeconds="20.60" traveltime="20.46" overlapTraveltime="20.86" density="0.33" overlapDensity="0.33" laneDensity="0.11" occupancy="0.05" waitingTime="0.00" timeLoss="0.93" speed="12.48" speedRelative="0.90" departed="0" arrived="1" entered="1" left="0" laneChangedFrom="0" laneChangedTo="0" flow="14.75"/>
        <edge id="23837911#0" sampledSeconds="16.25" traveltime="2.02" overlapTraveltime="2.51" density="3.51" overlapDensity="4.47" laneDensity="1.17" occupancy="0.60" waitingTime="0.00" timeLoss="6.87" speed="7.94" speedRelative="0.57" departed="2" arrived="0" entered="5" left="7" laneChangedFrom="0" laneChangedTo="0" flow="93.17"/>
        <edge id="23837911#1" sampledSeconds="259.61" traveltime="16.92" overlapTraveltime="17.33" density="4.79" overlapDensity="4.90" laneDensity="1.60" occupancy="0.80" waitingTime="0.00" timeLoss="17.64" speed="12.81" speedRelative="0.92" departed="1" arrived="1" entered="14" left="14" laneChangedFrom="8" laneChangedTo="8" flow="220.96"/>
        <edge id="23837911#4" sampledSeconds="390.51" traveltime="19.70" overlapTraveltime="20.72" density="15.04" overlapDensity="15.47" laneDensity="5.01" occupancy="2.50" waitingTime="174.00" timeLoss="238.03" speed="5.24" speedRelative="0.38" departed="1" arrived="0" entered="22" left="10" laneChangedFrom="32" laneChangedTo="32" flow="284.43"/>
        <edge id="292179033#0" sampledSeconds="372.09" traveltime="8.92" overlapTraveltime="9.75" density="20.99" overlapDensity="22.88" laneDensity="7.00" occupancy="3.57" waitingTime="62.00" timeLoss="177.54" speed="7.35" speedRelative="0.53" departed="4" arrived="1" entered="36" left="37" laneChangedFrom="48" laneChangedTo="48" flow="564.31"/>
        <edge id="292179033#4" sampledSeconds="305.71" traveltime="7.21" overlapTraveltime="7.70" density="14.19" overlapDensity="15.08" laneDensity="4.73" occupancy="2.35" waitingTime="0.00" timeLoss="54.04" speed="11.45" speedRelative="0.82" departed="2" arrived="2" entered="39" left="36" laneChangedFrom="23" laneChangedTo="23" flow="588.29"/>
        <edge id="292179033#6" sampledSeconds="625.61" traveltime="11.15" overlapTraveltime="11.57" density="21.51" overlapDensity="22.25" laneDensity="7.17" occupancy="3.58" waitingTime="4.00" timeLoss="159.43" speed="10.40" speedRelative="0.75" departed="19" arrived="1" entered="42" left="49" laneChangedFrom="55" laneChangedTo="55" flow="800.75"/>
        <edge id="292179033#7" sampledSeconds="172.74" traveltime="3.02" overlapTraveltime="3.49" density="22.02" overlapDensity="25.28" laneDensity="7.34" occupancy="3.65" waitingTime="16.00" timeLoss="52.95" speed="9.45" speedRelative="0.68" departed="2" arrived="2" entered="50" left="46" laneChangedFrom="12" laneChangedTo="12" flow="736.02"/>
        <edge id="292179033#9" sampledSeconds="777.13" traveltime="13.59" overlapTraveltime="14.69" density="34.85" overlapDensity="37.41" laneDensity="11.62" occupancy="5.92" waitingTime="119.00" timeLoss="438.08" speed="6.13" speedRelative="0.44" departed="18" arrived="2" entered="45" left="45" laneChangedFrom="23" laneChangedTo="23" flow="785.98"/>
        <edge id="30814311#0" sampledSeconds="128.94" traveltime="25.37" overlapTraveltime="25.99" density="2.52" overlapDensity="2.58" laneDensity="2.52" occupancy="1.26" waitingTime="0.00" timeLoss="14.17" speed="8.08" speedRelative="0.97" departed="1" arrived="3" entered="4" left="2" laneChangedFrom="0" laneChangedTo="0" flow="73.40"/>
        <edge id="30814438#0" sampledSeconds="0.00" departed="0" arrived="0" entered="0" left="0" laneChangedFrom="0" laneChangedTo="0"/>
        <edge id="30814438#2" sampledSeconds="20.45" traveltime="3.35" overlapTraveltime="4.36" density="5.46" overlapDensity="7.33" laneDensity="5.46" occupancy="2.94" waitingTime="4.00" timeLoss="10.67" speed="3.77" speedRelative="0.45" departed="1" arrived="0" entered="4" left="5" laneChangedFrom="0" laneChangedTo="0" flow="67.19"/>
        <edge id="30824033#0" sampledSeconds="167.01" traveltime="17.32" overlapTraveltime="18.03" density="5.23" overlapDensity="5.41" laneDensity="5.23" occupancy="2.61" waitingTime="0.00" timeLoss="25.64" speed="7.29" speedRelative="0.88" departed="4" arrived="1" entered="8" left="7" laneChangedFrom="0" laneChangedTo="0" flow="137.39"/>
        <edge id="30824033#2" sampledSeconds="611.84" traveltime="30.67" overlapTraveltime="31.58" density="15.18" overlapDensity="15.54" laneDensity="15.18" occupancy="7.60" waitingTime="134.00" timeLoss="230.57" speed="5.27" speedRelative="0.63" departed="8" arrived="2" entered="15" left="14" laneChangedFrom="0" laneChangedTo="0" flow="287.62"/>