<?xml version="1.0" encoding="UTF-8"?>

<!-- generated on 2026-03-18T13:12:17.644923+01:00 by Eclipse SUMO GUI 1.26.0
<sumoConfiguration xmlns:xsi="http://www.w3.org/2001/XMLSchema-instance" xsi:noNamespaceSchemaLocation="http://sumo.dlr.de/xsd/sumoConfiguration.xsd">

    <input>
        <net-file value="osm.net.xml.gz"/>
        <route-files value="osm.passenger.trips.xml"/>
        <additional-files value="rilevazioni/output.add.xml"/>
    </input>

    <output>
        <tripinfo-output value="output/tripinfos.xml"/>
        <statistic-output value="output/stats.xml"/>
    </output>

    <processing>
        <ignore-route-errors value="true"/>
        <tls.actuated.jam-threshold value="30"/>
    </processing>

    <routing>
        <device.rerouting.adaptation-steps value="18"/>
        <device.rerouting.adaptation-interval value="10"/>
    </routing>

    <report>
        <verbose value="true"/>
        <duration-log.statistics value="true"/>
        <no-step-log value="true"/>
    </report>

    <gui_only>
        <gui-settings-file value="osm.view.xml"/>
    </gui_only>

</sumoConfiguration>
-->

<tripinfos xmlns:xsi="http://www.w3.org/2001/XMLSchema-instance" xsi:noNamespaceSchemaLocation="http://sumo.dlr.de/xsd/tripinfo_file.xsd">
    <tripinfo id="veh1" depart="17.00" departLane="135982476#0_0" departPos="5.10" departSpeed="13.03" departDelay="0.09" arrival="59.00" arrivalLane="1467263794#0_0" arrivalPos="114.21" arrivalSpeed="12.27" duration="42.00" routeLength="511.04" waitingTime="0.00" waitingCount="0" stopTime="0.00" timeLoss="2.77" rerouteNo="1" devices="tripinfo_veh1 routing_veh1" vType="veh_passenger" speedFactor="0.94" vaporized=""/>
    <tripinfo id="veh2" depart="34.00" departLane="292179033#4_0" departPos="5.10" departSpeed="0.00" departDelay="0.18" arrival="63.00" arrivalLane="292179033#9_0" arrivalPos="85.14" arrivalSpeed="13.60" duration="29.00" routeLength="346.49" waitingTime="0.00" waitingCount="0" stopTime="0.00" timeLoss="4.22" rerouteNo="1" devices="tripinfo_veh2 routing_veh2" vType="veh_passenger" speedFactor="1.01" vaporized=""/>
    <tripinfo id="veh0" depart="0.00" departLane="23296952#0_0" departPos="5.10" departSpeed="0.00" departDelay="0.00" arrival="162.00" arrivalLane="-103538896_0" arrivalPos="113.95" arrivalSpeed="7.59" duration="162.00" routeLength="1424.37" waitingTime="4.00" waitingCount="1" stopTime="0.00" timeLoss="23.48" rerouteNo="1" devices="tripinfo_veh0 routing_veh0" vType="veh_passenger" speedFactor="1.06" vaporized=""/>
    <tripinfo id="veh5" depart="85.00" departLane="-170687890_0" departPos="5.10" departSpeed="6.92" departDelay="0.46" arrival="200.00" arrivalLane="1221422471_0" arrivalPos="43.40" arrivalSpeed="6.75" duration="115.00" routeLength="725.01" waitingTime="10.00" waitingCount="1" stopTime="0.00" timeLoss="22.80" rerouteNo="1" devices="tripinfo_veh5 routing_veh5" vType="veh_passenger" speedFactor="0.83" vaporized=""/>
    <tripinfo id="veh11" depart="186.00" departLane="33523402_1" departPos="0.20" departSpeed="0.00" departDelay="0.01" arrival="218.00" arrivalLane="23837911#4_1" arrivalPos="103.48" arrivalSpeed="13.09" duration="32.00" routeLength="386.03" waitingTime="0.00" waitingCount="0" stopTime="0.00" timeLoss="3.65" rerouteNo="1" devices="tripinfo_veh11 routing_veh11" vType="veh_passenger" speedFactor="1.03" vaporized=""/>
    <tripinfo id="veh7" depart="119.00" departLane="103538896_0" departPos="5.10" departSpeed="7.38" departDelay="0.64" arrival="240.00" arrivalLane="23837911#0_1" arrivalPos="14.89" arrivalSpeed="10.41" duration="121.00" routeLength="845.18" waitingTime="7.00" waitingCount="2" stopTime="0.00" timeLoss="26.76" rerouteNo="1" devices="tripinfo_veh7 routing_veh7" vType="veh_passenger" speedFactor="0.89" vaporized=""/>
    <tripinfo id="veh4" depart="68.00" departLane="1472800673#0_0" departPos="5.10" departSpeed="14.31" departDelay="0.37" arrival="252.00" arrivalLane="-1103834241_0" arrivalPos="35.15" arrivalSpeed="8.51" duration="184.00" routeLength="1581.45" waitingTime="26.00" waitingCount="3" stopTime="0.00" timeLoss="51.50" rerouteNo="1" devices="tripinfo_veh4 routing_veh4" vType="veh_passenger" speedFactor="1.03" vaporized=""/>
    <tripinfo id="veh6" depart="102.00" departLane="237638594#0_0" departPos="5.10" departSpeed="8.71" departDelay="0.55" arrival="266.00" arrivalLane="23837909#0_0" arrivalPos="255.35" arrivalSpeed="13.29" duration="164.00" routeLength="1608.98" waitingTime="6.00" waitingCount="1" stopTime="0.00" timeLoss="30.13" rerouteNo="1" devices="tripinfo_veh6 routing_veh6" vType="veh_passenger" speedFactor="1.05" vaporized=""/>
    <tripinfo id="veh3" depart="51.00" departLane="391140800#2_0" departPos="5.10" departSpeed="0.00" departDelay="0.27" arrival="283.00" arrivalLane="-237638594#0_0" arrivalPos="95.39" arrivalSpeed="7.75" duration="232.00" routeLength="1728.33" waitingTime="19.00" waitingCount="2" stopTime="0.00" timeLoss="47.40" rerouteNo="1" devices="tripinfo_veh3 routing_veh3" vType="veh_passenger" speedFactor="1.08" vaporized=""/>
    <tripinfo id="veh9" depart="153.00" departLane="1462715258_0" departPos="5.10" departSpeed="7.14" departDelay="0.82" arrival="286.00" arrivalLane="-455829556#2_0" arrivalPos="118.16" arrivalSpeed="6.92" duration="133.00" routeLength="1082.05" waitingTime="13.00" waitingCount="2" stopTime="0.00" timeLoss="32.08" rerouteNo="1" devices="tripinfo_veh9 routing_veh9" vType="veh_passenger" speedFactor="0.86" vaporized=""/>
    <tripinfo id="veh13" depart="220.00" departLane="33523355#0_0" departPos="5.10" departSpeed="0.00" departDelay="0.19" arrival="287.00" arrivalLane="292179033#0_2" arrivalPos="66.64" arrivalSpeed="14.76" duration="67.00" routeLength="489.45" waitingTime="7.00" waitingCount="1" stopTime="0.00" timeLoss="17.37" rerouteNo="1" devices="tripinfo_veh13 routing_veh13" vType="veh_passenger" speedFactor="1.12" vaporized=""/>
    <tripinfo id="veh10" depart="170.00" departLane="-33523578#2_0" departPos="5.10" departSpeed="9.09" departDelay="0.92" arrival="292.00" arrivalLane="-237638594#1_0" arrivalPos="198.81" arrivalSpeed="8.39" duration="122.00" routeLength="986.48" waitingTime="5.00" waitingCount="1" stopTime="0.00" timeLoss="20.55" rerouteNo="1" devices="tripinfo_veh10 routing_veh10" vType="veh_passenger" speedFactor="1.09" vaporized=""/>
    <tripinfo id="veh8" depart="136.00" departLane="31103210_0" departPos="5.10" departSpeed="0.00" departDelay="0.73" arrival="300.00" arrivalLane="-103538896_0" arrivalPos="113.95" arrivalSpeed="7.31" duration="164.00" routeLength="1271.85" waitingTime="13.00" waitingCount="2" stopTime="0.00" timeLoss="36.75" rerouteNo="1" devices="tripinfo_veh8 routing_veh8" vType="veh_passenger" speedFactor="0.94" vaporized=""/>
    <tripinfo id="veh12" depart="203.00" departLane="23271732#0_0" departPos="5.10" departSpeed="0.00" departDelay="0.10" arrival="327.00" arrivalLane="83202926#2_0" arrivalPos="4.26" arrivalSpeed="7.57" duration="124.00" routeLength="1034.86" waitingTime="2.00" waitingCount="1" stopTime="0.00" timeLoss="20.19" rerouteNo="1" devices="tripinfo_veh12 routing_veh12" vType="veh_passenger" speedFactor="1.05" vaporized=""/>
    <tripinfo id="veh15" depart="254.00" departLane="23837911#4_0" departPos="5.10" departSpeed="0.00" departDelay="0.37" arrival="405.00" arrivalLane="-171520872#1_0" arrivalPos="247.58" arrivalSpeed="2.06" duration="151.00" routeLength="436.58" waitingTime="0.00" waitingCount="0" stopTime="0.00" timeLoss="38.55" rerouteNo="1" devices="tripinfo_veh15 routing_veh15" vType="veh_passenger" speedFactor="0.93" vaporized=""/>
    <tripinfo id="veh17" depart="288.00" departLane="-33523355#2_0" departPos="5.10" departSpeed="0.00" departDelay="0.56" arrival="405.00" arrivalLane="1467263794#0_0" arrivalPos="114.21" arrivalSpeed="11.82" duration="117.00" routeLength="807.27" waitingTime="4.00" waitingCount="1" stopTime="0.00" timeLoss="18.88" rerouteNo="1" devices="tripinfo_veh17 routing_veh17" vType="veh_passenger" speedFactor="0.94" vaporized=""/>
    <tripinfo id="veh19" depart="322.00" departLane="23295986#0_2" departPos="5.10" departSpeed="0.00" departDelay="0.74" arrival="407.00" arrivalLane="170687890_0" arrivalPos="146.90" arrivalSpeed="9.35" duration="85.00" routeLength="885.04" waitingTime="4.00" waitingCount="1" stopTime="0.00" timeLoss="21.67" rerouteNo="1" devices="tripinfo_veh19 routing_veh19" vType="veh_passenger" speedFactor="1.16" vaporized=""/>
    <tripinfo id="veh16" depart="271.00" departLane="103538896_0" departPos="5.10" departSpeed="7.32" departDelay="0.46" arrival="431.00" arrivalLane="1467263796#0_0" arrivalPos="236.51" arrivalSpeed="11.78" duration="160.00" routeLength="1228.56" waitingTime="13.00" waitingCount="2" stopTime="0.00" timeLoss="35.19" rerouteNo="1" devices="tripinfo_veh16 routing_veh16" vType="veh_passenger" speedFactor="0.88" vaporized=""/>
    <tripinfo id="veh14" depart="237.00" departLane="34034103#1_0" departPos="5.10" departSpeed="0.00" departDelay="0.28" arrival="434.00" arrivalLane="23837911#0_1" arrivalPos="14.89" arrivalSpeed="10.60" duration="197.00" routeLength="891.10" waitingTime="17.00" waitingCount="3" stopTime="0.00" timeLoss="61.76" rerouteNo="1" devices="tripinfo_veh14 routing_veh14" vType="veh_passenger" speedFactor="0.99" vaporized=""/>
    <tripinfo id="veh18" depart="305.00" departLane="-33523578#2_0" departPos="5.10" departSpeed="7.80" departDelay="0.65" arrival="455.00" arrivalLane="1467263796#0_0" arrivalPos="236.51" arrivalSpeed="12.11" duration="150.00" routeLength="1252.22" waitingTime="14.00" waitingCount="1" stopTime="0.00" timeLoss="30.08" rerouteNo="1" devices="tripinfo_veh18 routing_veh18" vType="veh_passenger" speedFactor="0.94" vaporized=""/>
    <tripinfo id="veh25" depart="423.00" departLane="33523355#4_0" departPos="5.10" departSpeed="0.00" departDelay="0.29" arrival="487.00" arrivalLane="33523578#0_0" arrivalPos="41.49" arrivalSpeed="6.60" duration="64.00" routeLength="414.02" waitingTime="0.00" waitingCount="0" stopTime="0.00" timeLoss="6.71" rerouteNo="1" devices="tripinfo_veh25 routing_veh25" vType="veh_passenger" speedFactor="0.87" vaporized=""/>
    <tripinfo id="veh22" depart="372.00" departLane="-685037225#1_0" departPos="5.10" departSpeed="8.12" departDelay="0.01" arrival="488.00" arrivalLane="31103210_0" arrivalPos="110.43" arrivalSpeed="7.23" duration="116.00" routeLength="944.32" waitingTime="14.00" waitingCount="2" stopTime="0.00" timeLoss="31.34" rerouteNo="1" devices="tripinfo_veh22 routing_veh22" vType="veh_passenger" speedFactor="0.97" vaporized=""/>
    <tripinfo id="veh20" depart="339.00" departLane="135982476#0_2" departPos="5.10" departSpeed="14.14" departDelay="0.83" arrival="490.00" arrivalLane="83202926#2_0" arrivalPos="4.26" arrivalSpeed="8.45" duration="151.00" routeLength="1382.26" waitingTime="23.00" waitingCount="3" stopTime="0.00" timeLoss="47.89" rerouteNo="1" devices="tripinfo_veh20 routing_veh20" vType="veh_passenger" speedFactor="1.02" vaporized=""/>
    <tripinfo id="veh21" depart="356.00" departLane="237638594#0_0" departPos="5.10" departSpeed="8.41" departDelay="0.92" arrival="542.00" arrivalLane="23837911#4_0" arrivalPos="103.48" arrivalSpeed="14.01" duration="186.00" routeLength="1734.59" waitingTime="8.00" waitingCount="4" stopTime="0.00" timeLoss="37.80" rerouteNo="1" devices="tripinfo_veh21 routing_veh21" vType="veh_passenger" speedFactor="1.01" vaporized=""/>
    <tripinfo id="veh23" depart="389.00" departLane="-38592259_0" departPos="5.10" departSpeed="7.41" departDelay="0.11" arrival="547.00" arrivalLane="23185949_0" arrivalPos="0.20" arrivalSpeed="2.22" duration="158.00" routeLength="1143.85" waitingTime="11.00" waitingCount="1" stopTime="0.00" timeLoss="31.20" rerouteNo="1" devices="tripinfo_veh23 routing_veh23" vType="veh_passenger" speedFactor="0.89" vaporized=""/>
    <tripinfo id="veh26" depart="440.00" departLane="103538896_0" departPos="5.10" departSpeed="7.64" departDelay="0.38" arrival="556.00" arrivalLane="83202926#2_0" arrivalPos="4.26" arrivalSpeed="6.43" duration="116.00" routeLength="891.23" waitingTime="2.00" waitingCount="1" stopTime="0.00" timeLoss="17.67" rerouteNo="1" devices="tripinfo_veh26 routing_veh26" vType="veh_passenger" speedFactor="0.92" vaporized=""/>
    <tripinfo id="veh24" depart="406.00" departLane="23271799#0_0" departPos="5.10" departSpeed="6.88" departDelay="0.20" arrival="605.00" arrivalLane="30814311#0_0" arrivalPos="204.96" arrivalSpeed="6.09" duration="199.00" routeLength="1384.41" waitingTime="4.00" waitingCount="1" stopTime="0.00" timeLoss="30.95" rerouteNo="1" devices="tripinfo_veh24 routing_veh24" vType="veh_passenger" speedFactor="0.83" vaporized=""/>
    <tripinfo id="veh32" depart="542.00" departLane="-33523578#2_0" departPos="5.10" departSpeed="8.37" departDelay="0.93" arrival="625.00" arrivalLane="292179033#0_2" arrivalPos="66.64" arrivalSpeed="12.82" duration="83.00" routeLength="523.86" waitingTime="13.00" waitingCount="1" stopTime="0.00" timeLoss="23.07" rerouteNo="1" devices="tripinfo_veh32 routing_veh32" vType="veh_passenger" speedFactor="1.01" vaporized=""/>
    <tripinfo id="veh34" depart="575.00" departLane="971680056#0_0" departPos="5.10" departSpeed="0.00" departDelay="0.11" arrival="625.00" arrivalLane="23837909#0_0" arrivalPos="255.35" arrivalSpeed="13.07" duration="50.00" routeLength="618.44" waitingTime="0.00" waitingCount="0" stopTime="0.00" timeLoss="4.88" rerouteNo="0" devices="tripinfo_veh34 routing_veh34" vType="veh_passenger" speedFactor="0.99" vaporized=""/>
    <tripinfo id="veh30" depart="508.00" departLane="1472800673#0_0" departPos="5.10" departSpeed="16.37" departDelay="0.75" arrival="635.00" arrivalLane="135982476#3_0" arrivalPos="93.28" arrivalSpeed="16.33" duration="127.00" routeLength="1451.63" waitingTime="11.00" waitingCount="1" stopTime="0.00" timeLoss="29.00" rerouteNo="1" devices="tripinfo_veh30 routing_veh30" vType="veh_passenger" speedFactor="1.18" vaporized=""/>
    <tripinfo id="veh33" depart="558.00" departLane="-30814311#1_0" departPos="5.10" departSpeed="0.00" departDelay="0.02" arrival="657.00" arrivalLane="23185949_0" arrivalPos="0.20" arrivalSpeed="3.96" duration="99.00" routeLength="961.09" waitingTime="0.00" waitingCount="0" stopTime="0.00" timeLoss="14.16" rerouteNo="1" devices="tripinfo_veh33 routing_veh33" vType="veh_passenger" speedFactor="1.17" vaporized=""/>
    <tripinfo id="veh29" depart="491.00" departLane="23276172#0_0" departPos="5.10" departSpeed="0.00" departDelay="0.65" arrival="664.00" arrivalLane="685037225#0_0" arrivalPos="71.12" arrivalSpeed="7.14" duration="173.00" routeLength="1374.24" waitingTime="3.00" waitingCount="2" stopTime="0.00" timeLoss="25.67" rerouteNo="1" devices="tripinfo_veh29 routing_veh29" vType="veh_passenger" speedFactor="0.93" vaporized=""/>
    <tripinfo id="veh31" depart="525.00" departLane="-33523355#4_0" departPos="5.10" departSpeed="0.00" departDelay="0.84" arrival="672.00" arrivalLane="-171520872#1_0" arrivalPos="247.58" arrivalSpeed="2.71" duration="147.00" routeLength="664.71" waitingTime="0.00" waitingCount="0" stopTime="0.00" timeLoss="27.73" rerouteNo="1" devices="tripinfo_veh31 routing_veh31" vType="veh_passenger" speedFactor="1.15" vaporized=""/>
    <tripinfo id="veh35" depart="592.00" departLane="83202926#0_1" departPos="5.10" departSpeed="0.00" departDelay="0.20" arrival="680.00" arrivalLane="38592259_0" arrivalPos="15.36" arrivalSpeed="7.53" duration="88.00" routeLength="792.12" waitingTime="0.00" waitingCount="0" stopTime="0.00" timeLoss="10.34" rerouteNo="1" devices="tripinfo_veh35 routing_veh35" vType="veh_passenger" speedFactor="1.02" vaporized=""/>
    <tripinfo id="veh28" depart="474.00" departLane="455829556#0_0" departPos="5.10" departSpeed="9.43" departDelay="0.56" arrival="689.00" arrivalLane="23276726#0_0" arrivalPos="262.58" arrivalSpeed="8.66" duration="215.00" routeLength="1783.44" waitingTime="4.00" waitingCount="1" stopTime="0.00" timeLoss="24.36" rerouteNo="1" devices="tripinfo_veh28 routing_veh28" vType="veh_passenger" speedFactor="1.13" vaporized=""/>
    <tripinfo id="veh37" depart="626.00" departLane="135982476#0_2" departPos="5.10" departSpeed="16.39" departDelay="0.39" arrival="690.00" arrivalLane="292179033#4_2" arrivalPos="83.10" arrivalSpeed="15.71" duration="64.00" routeLength="937.13" waitingTime="0.00" waitingCount="0" stopTime="0.00" timeLoss="5.48" rerouteNo="1" devices="tripinfo_veh37 routing_veh37" vType="veh_passenger" speedFactor="1.18" vaporized=""/>
    <tripinfo id="veh27" depart="457.00" departLane="237638594#0_0" departPos="5.10" departSpeed="7.90" departDelay="0.47" arrival="718.00" arrivalLane="23271728#0_0" arrivalPos="49.69" arrivalSpeed="7.60" duration="261.00" routeLength="1975.78" waitingTime="0.00" waitingCount="0" stopTime="0.00" timeLoss="27.65" rerouteNo="1" devices="tripinfo_veh27 routing_veh27" vType="veh_passenger" speedFactor="0.95" vaporized=""/>
    <tripinfo id="veh38" depart="643.00" departLane="-33523578#2_0" departPos="5.10" departSpeed="9.18" departDelay="0.48" arrival="735.00" arrivalLane="23276536_0" arrivalPos="125.00" arrivalSpeed="8.08" duration="92.00" routeLength="766.86" waitingTime="0.00" waitingCount="0" stopTime="0.00" timeLoss="7.39" rerouteNo="1" devices="tripinfo_veh38 routing_veh38" vType="veh_passenger" speedFactor="1.10" vaporized=""/>
    <tripinfo id="veh39" depart="660.00" departLane="1472850568#0_2" departPos="5.10" departSpeed="0.00" departDelay="0.57" arrival="737.00" arrivalLane="83202926#2_0" arrivalPos="4.26" arrivalSpeed="6.43" duration="77.00" routeLength="515.86" waitingTime="13.00" waitingCount="3" stopTime="0.00" timeLoss="30.45" rerouteNo="1" devices="tripinfo_veh39 routing_veh39" vType="veh_passenger" speedFactor="0.90" vaporized=""/>
    <tripinfo id="veh41" depart="694.00" departLane="455829556#0_0" departPos="5.10" departSpeed="7.97" departDelay="0.75" arrival="752.00" arrivalLane="391140800#0_0" arrivalPos="44.33" arrivalSpeed="6.92" duration="58.00" routeLength="420.44" waitingTime="0.00" waitingCount="0" stopTime="0.00" timeLoss="4.92" rerouteNo="1" devices="tripinfo_veh41 routing_veh41" vType="veh_passenger" speedFactor="0.96" vaporized=""/>
    <tripinfo id="veh42" depart="711.00" departLane="135982476#0_2" departPos="5.10" departSpeed="15.17" departDelay="0.84" arrival="804.00" arrivalLane="292179033#4_2" arrivalPos="83.10" arrivalSpeed="15.10" duration="93.00" routeLength="937.13" waitingTime="16.00" waitingCount="2" stopTime="0.00" timeLoss="30.21" rerouteNo="1" devices="tripinfo_veh42 routing_veh42" vType="veh_passenger" speedFactor="1.09" vaporized=""/>
    <tripinfo id="veh43" depart="728.00" departLane="23276766#0_0" departPos="5.10" departSpeed="0.00" departDelay="0.94" arrival="817.00" arrivalLane="-455829556#2_0" arrivalPos="118.16" arrivalSpeed="7.59" duration="89.00" routeLength="842.69" waitingTime="5.00" waitingCount="1" stopTime="0.00" timeLoss="17.08" rerouteNo="1" devices="tripinfo_veh43 routing_veh43" vType="veh_passenger" speedFactor="1.04" vaporized=""/>
    <tripinfo id="veh36" depart="609.00" departLane="-170687890_0" departPos="5.10" departSpeed="8.11" departDelay="0.30" arrival="831.00" arrivalLane="30959354#0_0" arrivalPos="176.72" arrivalSpeed="7.26" duration="222.00" routeLength="1690.56" waitingTime="0.00" waitingCount="0" stopTime="0.00" timeLoss="23.18" rerouteNo="1" devices="tripinfo_veh36 routing_veh36" vType="veh_passenger" speedFactor="0.97" vaporized=""/>
    <tripinfo id="veh44" depart="744.00" departLane="292179033#7_2" departPos="5.10" departSpeed="0.00" departDelay="0.03" arrival="836.00" arrivalLane="23837909#0_0" arrivalPos="255.35" arrivalSpeed="13.51" duration="92.00" routeLength="1019.06" waitingTime="0.00" waitingCount="0" stopTime="0.00" timeLoss="19.86" rerouteNo="1" devices="tripinfo_veh44 routing_veh44" vType="veh_passenger" speedFactor="1.04" vaporized=""/>
    <tripinfo id="veh45" depart="761.00" departLane="292179033#9_2" departPos="5.10" departSpeed="0.00" departDelay="0.12" arrival="882.00" arrivalLane="23837909#0_0" arrivalPos="255.35" arrivalSpeed="14.35" duration="121.00" routeLength="1357.10" waitingTime="12.00" waitingCount="1" stopTime="0.00" timeLoss="29.48" rerouteNo="1" devices="tripinfo_veh45 routing_veh45" vType="veh_passenger" speedFactor="1.09" vaporized=""/>
    <tripinfo id="veh47" depart="795.00" departLane="-170687890_0" departPos="5.10" departSpeed="7.50" departDelay="0.30" arrival="911.00" arrivalLane="83202926#0_0" arrivalPos="38.91" arrivalSpeed="6.66" duration="116.00" routeLength="978.27" waitingTime="5.00" waitingCount="2" stopTime="0.00" timeLoss="22.76" rerouteNo="1" devices="tripinfo_veh47 routing_veh47" vType="veh_passenger" speedFactor="0.90" vaporized=""/>
    <tripinfo id="veh46" depart="778.00" departLane="-1023996215#2_0" departPos="5.10" departSpeed="0.00" departDelay="0.21" arrival="912.00" arrivalLane="1472850568#0_0" arrivalPos="66.58" arrivalSpeed="13.48" duration="134.00" routeLength="1128.72" waitingTime="5.00" waitingCount="1" stopTime="0.00" timeLoss="22.25" rerouteNo="1" devices="tripinfo_veh46 routing_veh46" vType="veh_passenger" speedFactor="1.00" vaporized=""/>
    <tripinfo id="veh48" depart="812.00" departLane="34036009#0_0" departPos="5.10" departSpeed="0.00" departDelay="0.39" arrival="949.00" arrivalLane="37711918_0" arrivalPos="33.53" arrivalSpeed="6.83" duration="137.00" routeLength="1022.66" waitingTime="15.00" waitingCount="1" stopTime="0.00" timeLoss="31.23" rerouteNo="1" devices="tripinfo_veh48 routing_veh48" vType="veh_passenger" speedFactor="0.88" vaporized=""/>
    <tripinfo id="veh40" depart="677.00" departLane="171520872#0_0" departPos="5.10" departSpeed="2.86" departDelay="0.66" arrival="965.00" arrivalLane="1067121593#0_0" arrivalPos="147.54" arrivalSpeed="8.41" duration="288.00" routeLength="1711.90" waitingTime="1.00" waitingCount="1" stopTime="0.00" timeLoss="54.78" rerouteNo="1" devices="tripinfo_veh40 routing_veh40" vType="veh_passenger" speedFactor="1.03" vaporized=""/>
    <tripinfo id="veh51" depart="863.00" departLane="-33523355#3_0" departPos="5.10" departSpeed="0.00" departDelay="0.67" arrival="969.00" arrivalLane="23295986#0_2" arrivalPos="42.15" arrivalSpeed="15.84" duration="106.00" routeLength="852.68" waitingTime="0.00" waitingCount="0" stopTime="0.00" timeLoss="19.14" rerouteNo="1" devices="tripinfo_veh51 routing_veh51" vType="veh_passenger" speedFactor="1.17" vaporized=""/>
    <tripinfo id="veh53" depart="897.00" departLane="1472850569#1_1" departPos="5.10" departSpeed="0.00" departDelay="0.85" arrival="997.00" arrivalLane="23837909#0_0" arrivalPos="255.35" arrivalSpeed="14.63" duration="100.00" routeLength="976.53" waitingTime="11.00" waitingCount="2" stopTime="0.00" timeLoss="35.01" rerouteNo="1" devices="tripinfo_veh53 routing_veh53" vType="veh_passenger" speedFactor="1.10" vaporized=""/>
    <tripinfo id="veh54" depart="914.00" departLane="135982476#0_0" departPos="5.10" departSpeed="13.93" departDelay="0.94" arrival="1001.00" arrivalLane="391140800#2_0" arrivalPos="121.76" arrivalSpeed="7.43" duration="87.00" routeLength="791.91" waitingTime="0.00" waitingCount="0" stopTime="0.00" timeLoss="9.98" rerouteNo="1" devices="tripinfo_veh54 routing_veh54" vType="veh_passenger" speedFactor="1.00" vaporized=""/>
    <tripinfo id="veh50" depart="846.00" departLane="34036009#0_0" departPos="5.10" departSpeed="0.00" departDelay="0.58" arrival="1029.00" arrivalLane="83202926#2_0" arrivalPos="4.26" arrivalSpeed="6.15" duration="183.00" routeLength="1244.33" waitingTime="35.00" waitingCount="4" stopTime="0.00" timeLoss="62.25" rerouteNo="1" devices="tripinfo_veh50 routing_veh50" vType="veh_passenger" speedFactor="0.85" vaporized=""/>
    <tripinfo id="veh56" depart="947.00" departLane="23271762#1_0" departPos="5.10" departSpeed="0.00" departDelay="0.13" arrival="1055.00" arrivalLane="31103210_0" arrivalPos="110.43" arrivalSpeed="6.69" duration="108.00" routeLength="719.66" waitingTime="0.00" waitingCount="0" stopTime="0.00" timeLoss="11.04" rerouteNo="1" devices="tripinfo_veh56 routing_veh56" vType="veh_passenger" speedFactor="0.90" vaporized=""/>
    <tripinfo id="veh57" depart="964.00" departLane="-945850922_0" departPos="5.10" departSpeed="0.00" departDelay="0.22" arrival="1063.00" arrivalLane="1467263797#0_0" arrivalPos="93.39" arrivalSpeed="15.49" duration="99.00" routeLength="947.49" waitingTime="8.00" waitingCount="1" stopTime="0.00" timeLoss="22.10" rerouteNo="1" devices="tripinfo_veh57 routing_veh57" vType="veh_passenger" speedFactor="1.14" vaporized=""/>
    <tripinfo id="veh58" depart="981.00" departLane="971680056#0_2" departPos="5.10" departSpeed="0.00" departDelay="0.31" arrival="1072.00" arrivalLane="292179033#6_0" arrivalPos="115.26" arrivalSpeed="13.59" duration="91.00" routeLength="1059.92" waitingTime="3.00" waitingCount="1" stopTime="0.00" timeLoss="15.03" rerouteNo="1" devices="tripinfo_veh58 routing_veh58" vType="veh_passenger" speedFactor="1.02" vaporized=""/>
    <tripinfo id="veh49" depart="829.00" departLane="135982476#0_0" departPos="5.10" departSpeed="11.81" departDelay="0.49" arrival="1083.00" arrivalLane="-23276766#0_0" arrivalPos="20.44" arrivalSpeed="6.82" duration="254.00" routeLength="1635.17" waitingTime="12.00" waitingCount="2" stopTime="0.00" timeLoss="42.49" rerouteNo="1" devices="tripinfo_veh49 routing_veh49" vType="veh_passenger" speedFactor="0.85" vaporized=""/>
    <tripinfo id="veh59" depart="998.00" departLane="-37711918_0" departPos="5.10" departSpeed="8.08" departDelay="0.40" arrival="1085.00" arrivalLane="1467263794#0_2" arrivalPos="114.21" arrivalSpeed="13.09" duration="87.00" routeLength="878.70" waitingTime="0.00" waitingCount="0" stopTime="0.00" timeLoss="8.72" rerouteNo="1" devices="tripinfo_veh59 routing_veh59" vType="veh_passenger" speedFactor="0.97" vaporized=""/>
    <tripinfo id="veh52" depart="880.00" departLane="292179033#7_2" departPos="5.10" departSpeed="0.00" departDelay="0.76" arrival="1088.00" arrivalLane="-33523355#4_0" arrivalPos="76.51" arrivalSpeed="7.85" duration="208.00" routeLength="1512.64" waitingTime="4.00" waitingCount="1" stopTime="0.00" timeLoss="37.43" rerouteNo="1" devices="tripinfo_veh52 routing_veh52" vType="veh_passenger" speedFactor="1.02" vaporized=""/>
    <tripinfo id="veh55" depart="930.00" departLane="1472800673#0_0" departPos="5.10" departSpeed="13.83" departDelay="0.03" arrival="1106.00" arrivalLane="135982476#3_0" arrivalPos="93.28" arrivalSpeed="13.75" duration="176.00" routeLength="1451.63" waitingTime="36.00" waitingCount="3" stopTime="0.00" timeLoss="59.91" rerouteNo="1" devices="tripinfo_veh55 routing_veh55" vType="veh_passenger" speedFactor="1.00" vaporized=""/>
    <tripinfo id="veh66" depart="1116.00" departLane="292179033#4_0" departPos="5.10" departSpeed="0.00" departDelay="0.04" arrival="1148.00" arrivalLane="292179033#9_0" arrivalPos="85.14" arrivalSpeed="11.72" duration="32.00" routeLength="346.49" waitingTime="0.00" waitingCount="0" stopTime="0.00" timeLoss="3.79" rerouteNo="1" devices="tripinfo_veh66 routing_veh66" vType="veh_passenger" speedFactor="0.91" vaporized=""/>
    <tripinfo id="veh60" depart="1015.00" departLane="103538896_0" departPos="5.10" departSpeed="9.02" departDelay="0.49" arrival="1159.00" arrivalLane="135982476#3_0" arrivalPos="93.28" arrivalSpeed="14.85" duration="144.00" routeLength="1287.33" waitingTime="12.00" waitingCount="1" stopTime="0.00" timeLoss="28.75" rerouteNo="1" devices="tripinfo_veh60 routing_veh60" vType="veh_passenger" speedFactor="1.08" vaporized=""/>
    <tripinfo id="veh62" depart="1049.00" departLane="103538896_0" departPos="5.10" departSpeed="8.46" departDelay="0.68" arrival="1178.00" arrivalLane="-379112060#2_0" arrivalPos="7.21" arrivalSpeed="5.97" duration="129.00" routeLength="1016.48" waitingTime="7.00" waitingCount="2" stopTime="0.00" timeLoss="33.22" rerouteNo="1" devices="tripinfo_veh62 routing_veh62" vType="veh_passenger" speedFactor="1.02" vaporized=""/>
    <tripinfo id="veh63" depart="1066.00" departLane="455829556#0_1" departPos="5.10" departSpeed="8.22" departDelay="0.77" arrival="1210.00" arrivalLane="23837909#0_0" arrivalPos="255.35" arrivalSpeed="13.16" duration="144.00" routeLength="1313.12" waitingTime="19.00" waitingCount="3" stopTime="0.00" timeLoss="42.06" rerouteNo="1" devices="tripinfo_veh63 routing_veh63" vType="veh_passenger" speedFactor="0.99" vaporized=""/>
    <tripinfo id="veh61" depart="1032.00" departLane="34034103#1_0" departPos="5.10" departSpeed="0.00" departDelay="0.58" arrival="1226.00" arrivalLane="-237638594#0_0" arrivalPos="95.39" arrivalSpeed="8.68" duration="194.00" routeLength="1144.79" waitingTime="6.00" waitingCount="1" stopTime="0.00" timeLoss="39.30" rerouteNo="1" devices="tripinfo_veh61 routing_veh61" vType="veh_passenger" speedFactor="1.12" vaporized=""/>
    <tripinfo id="veh68" depart="1150.00" departLane="1472800673#0_2" departPos="5.10" departSpeed="14.45" departDelay="0.22" arrival="1261.00" arrivalLane="1472850569#0_0" arrivalPos="51.02" arrivalSpeed="14.21" duration="111.00" routeLength="1123.27" waitingTime="5.00" waitingCount="2" stopTime="0.00" timeLoss="26.51" rerouteNo="1" devices="tripinfo_veh68 routing_veh68" vType="veh_passenger" speedFactor="1.04" vaporized=""/>
    <tripinfo id="veh67" depart="1133.00" departLane="95408280#0_0" departPos="5.10" departSpeed="0.00" departDelay="0.13" arrival="1325.00" arrivalLane="-237638594#3_0" arrivalPos="139.09" arrivalSpeed="7.27" duration="192.00" routeLength="1281.44" waitingTime="5.00" waitingCount="1" stopTime="0.00" timeLoss="32.43" rerouteNo="1" devices="tripinfo_veh67 routing_veh67" vType="veh_passenger" speedFactor="0.91" vaporized=""/>