<?xml version="1.0" encoding="UTF-8"?>

<!-- generated on 2026-03-25T17:36:29.611930+01:00 by Eclipse SUMO sumo v1_26_0+0818-8fa21e3b56a
<sumoConfiguration xmlns:xsi="http://www.w3.org/2001/XMLSchema-instance" xsi:noNamespaceSchemaLocation="http://sumo.dlr.de/xsd/sumoConfiguration.xsd">

    <input>
        <net-file value="/Users/raffaele/PycharmProjects/TrafficAgenticAi/Simulazione Sumo/Prova_VialeAldini/osm.net.xml.gz"/>
        <route-files value="/Users/raffaele/PycharmProjects/TrafficAgenticAi/Simulazione Sumo/Prova_VialeAldini/heavy.rou.xml"/>
        <additional-files value="/Users/raffaele/PycharmProjects/TrafficAgenticAi/Simulazione Sumo/Prova_VialeAldini/rilevazioni/output.add.xml"/>
    </input>

    <output>
        <tripinfo-output value="/Users/raffaele/PycharmProjects/TrafficAgenticAi/Simulazione Sumo/Prova_VialeAldini/output/tripinfos.xml"/>
        <statistic-output value="/Users/raffaele/PycharmProjects/TrafficAgenticAi/Simulazione Sumo/Prova_VialeAldini/output/stats.xml"/>
    </output>

    <processing>
        <ignore-route-errors value="true"/>
        <tls.actuated.jam-threshold value="30"/>
    </processing>

    <routing>
        <device.rerouting.adaptation-steps value="18"/>
        <device.rerouting.adaptation-interval value="10"/>
    </routing>

    <report>
        <verbose value="true"/>
        <duration-log.statistics value="true"/>
        <no-step-log value="true"/>
    </report>

    <traci_server>
        <remote-port value="54871"/>
    </traci_server>

    <gui_only>
        <gui-settings-file value="/Users/raffaele/PycharmProjects/TrafficAgenticAi/Simulazione Sumo/Prova_VialeAldini/osm.view.xml"/>
    </gui_only>

</sumoConfiguration>
-->

<meandata xmlns:xsi="http://www.w3.org/2001/XMLSchema-instance" xsi:noNamespaceSchemaLocation="http://sumo.dlr.de/xsd/meandata_file.xsd">
    <interval begin="0.00" end="259.00" id="wizard_example">
        <edge id="-1023996215#2" sampledSeconds="218.44" traveltime="19.96" overlapTraveltime="20.66" density="5.86" overlapDensity="6.02" laneDensity="5.86" occupancy="2.94" waitingTime="0.00" timeLoss="23.96" speed="7.02" speedRelative="0.84" departed="4" arrived="1" entered="7" left="9" laneChangedFrom="0" laneChangedTo="0" flow="147.92"/>
        <edge id="-103538896" sampledSeconds="0.00" departed="0" arrived="0" entered="0" left="0" laneChangedFrom="0" laneChangedTo="0"/>
        <edge id="-1103834241" sampledSeconds="94.52" traveltime="8.95" overlapTraveltime="10.58" density="8.77" overlapDensity="10.38" laneDensity="8.77" occupancy="4.63" waitingTime="25.00" timeLoss="42.53" speed="3.79" speedRelative="0.46" departed="1" arrived="1" entered="9" left="8" laneChangedFrom="0" laneChangedTo="0" flow="123.98"/>
        <edge id="-170687890" sampledSeconds="107.32" traveltime="24.47" overlapTraveltime="25.54" density="2.62" overlapDensity="2.73" laneDensity="2.62" occupancy="1.34" waitingTime="11.00" timeLoss="30.12" speed="6.14" speedRelative="0.74" departed="6" arrived="0" entered="0" left="4" laneChangedFrom="0" laneChangedTo="0" flow="58.51"/>
        <edge id="-171520872#1" sampledSeconds="207.72" traveltime="103.64" overlapTraveltime="105.72" density="3.23" overlapDensity="3.24" laneDensity="3.23" occupancy="1.60" waitingTime="0.00" timeLoss="44.91" speed="2.39" speedRelative="0.86" departed="0" arrived="2" entered="2" left="0" laneChangedFrom="0" laneChangedTo="0" flow="27.80"/>
        <edge id="-23185949" sampledSeconds="27.42" traveltime="1.54" overlapTraveltime="4.84" density="133.33" overlapDensity="133.33" laneDensity="133.33" occupancy="8.67" waitingTime="19.96" timeLoss="23.76" speed="1.07" speedRelative="0.13" departed="0" arrived="1" entered="6" left="5" laneChangedFrom="0" laneChangedTo="0" flow="62.53"/>
        <edge id="-23276766#0" sampledSeconds="22.75" traveltime="2.62" overlapTraveltime="3.25" density="3.46" overlapDensity="4.30" laneDensity="3.46" occupancy="1.72" waitingTime="0.00" timeLoss="1.47" speed="7.83" speedRelative="0.94" departed="0" arrived="1" entered="7" left="6" laneChangedFrom="0" laneChangedTo="0" flow="97.30"/>
        <edge id="-23276766#2" sampledSeconds="216.92" traveltime="17.69" overlapTraveltime="18.41" density="6.14" overlapDensity="6.37" laneDensity="6.14" occupancy="3.04" waitingTime="0.00" timeLoss="22.31" speed="7.41" speedRelative="0.89" departed="1" arrived="1" entered="12" left="10" laneChangedFrom="0" laneChangedTo="0" flow="164.21"/>
        <edge id="-23296952#2" sampledSeconds="916.84" traveltime="37.06" overlapTraveltime="38.30" density="20.95" overlapDensity="21.42" laneDensity="20.95" occupancy="10.50" waitingTime="266.00" timeLoss="421.55" speed="4.45" speedRelative="0.53" departed="2" arrived="1" entered="27" left="15" laneChangedFrom="0" laneChangedTo="0" flow="336.33"/>
        <edge id="-237638594#0" sampledSeconds="0.00" departed="0" arrived="0" entered="0" left="0" laneChangedFrom="0" laneChangedTo="0"/>
        <edge id="-237638594#1" sampledSeconds="161.30" traveltime="26.82" overlapTraveltime="27.46" density="3.06" overlapDensity="3.13" laneDensity="3.06" occupancy="1.55" waitingTime="0.00" timeLoss="18.33" speed="7.42" speedRelative="0.89" departed="5" arrived="1" entered="1" left="5" laneChangedFrom="0" laneChangedTo="0" flow="81.61"/>
        <edge id="-237638594#3" sampledSeconds="278.33" traveltime="19.53" overlapTraveltime="20.84" density="7.26" overlapDensity="7.73" laneDensity="7.26" occupancy="3.70" waitingTime="6.00" timeLoss="45.72" speed="6.91" speedRelative="0.83" departed="5" arrived="1" entered="10" left="12" laneChangedFrom="0" laneChangedTo="0" flow="186.20"/>
        <edge id="-30814311#1" sampledSeconds="184.01" traveltime="25.69" overlapTraveltime="26.48" density="3.56" overlapDensity="3.67" laneDensity="3.56" occupancy="1.79" waitingTime="0.00" timeLoss="20.79" speed="7.49" speedRelative="0.90" departed="2" arrived="0" entered="5" left="7" laneChangedFrom="0" laneChangedTo="0" flow="96.56"/>
        <edge id="-30824033#1" sampledSeconds="131.15" traveltime="18.13" overlapTraveltime="19.14" density="3.76" overlapDensity="3.94" laneDensity="3.76" occupancy="1.90" waitingTime="0.00" timeLoss="16.82" speed="6.98" speedRelative="0.84" departed="2" arrived="2" entered="5" left="4" laneChangedFrom="0" laneChangedTo="0" flow="96.09"/>
        <edge id="-30824033#5" sampledSeconds="334.73" traveltime="22.83" overlapTraveltime="24.04" density="7.62" overlapDensity="8.02" laneDensity="7.62" occupancy="3.87" waitingTime="3.00" timeLoss="52.69" speed="6.91" speedRelative="0.83" departed="5" arrived="2" entered="10" left="12" laneChangedFrom="0" laneChangedTo="0" flow="193.75"/>
        <edge id="-33523355#1" sampledSeconds="83.39" traveltime="4.75" overlapTraveltime="5.61" density="8.26" overlapDensity="9.76" laneDensity="8.26" occupancy="4.16" waitingTime="0.00" timeLoss="16.37" speed="6.77" speedRelative="0.81" departed="1" arrived="1" entered="14" left="14" laneChangedFrom="0" laneChangedTo="0" flow="206.34"/>
        <edge id="-33523355#2" sampledSeconds="99.49" traveltime="7.64" overlapTraveltime="8.29" density="6.20" overlapDensity="6.73" laneDensity="6.20" occupancy="3.07" waitingTime="0.00" timeLoss="9.80" speed="7.49" speedRelative="0.90" departed="0" arrived="0" entered="12" left="12" laneChangedFrom="0" laneChangedTo="0" flow="166.80"/>
        <edge id="-33523355#3" sampledSeconds="90.31" traveltime="5.88" overlapTraveltime="7.75" density="6.96" overlapDensity="9.11" laneDensity="6.96" occupancy="3.97" waitingTime="12.00" timeLoss="26.54" speed="5.58" speedRelative="0.67" departed="2" arrived="1" entered="10" left="11" laneChangedFrom="0" laneChangedTo="0" flow="163.09"/>
        <edge id="-33523355#4" sampledSeconds="114.74" traveltime="10.77" overlapTraveltime="11.55" density="5.40" overlapDensity="5.79" laneDensity="5.40" occupancy="2.70" waitingTime="0.00" timeLoss="13.24" speed="7.06" speedRelative="0.85" departed="1" arrived="0" entered="9" left="10" laneChangedFrom="0" laneChangedTo="0" flow="138.07"/>
        <edge id="-33523578#2" sampledSeconds="27.77" traveltime="6.92" overlapTraveltime="7.55" density="2.28" overlapDensity="2.52" laneDensity="2.28" occupancy="1.17" waitingTime="0.00" timeLoss="7.21" speed="6.31" speedRelative="0.76" departed="3" arrived="0" entered="1" left="4" laneChangedFrom="0" laneChangedTo="0" flow="50.61"/>
        <edge id="-37711918" sampledSeconds="12.15" traveltime="6.34" overlapTraveltime="7.00" density="1.24" overlapDensity="1.40" laneDensity="1.24" occupancy="0.66" waitingTime="0.00" timeLoss="4.30" speed="5.50" speedRelative="0.66" departed="2" arrived="0" entered="0" left="2" laneChangedFrom="0" laneChangedTo="0" flow="23.57"/>
        <edge id="-379112060#2" sampledSeconds="129.39" traveltime="10.14" overlapTraveltime="11.17" density="61.30" overlapDensity="69.29" laneDensity="61.30" occupancy="31.14" waitingTime="87.00" timeLoss="108.42" speed="1.09" speedRelative="0.13" departed="1" arrived="0" entered="11" left="12" laneChangedFrom="0" laneChangedTo="0" flow="156.96"/>
        <edge id="-38592259" sampledSeconds="9.95" traveltime="10.82" overlapTraveltime="12.50" density="1.55" overlapDensity="1.92" laneDensity="1.55" occupancy="0.89" waitingTime="4.00" timeLoss="7.76" speed="2.00" speedRelative="0.24" departed="1" arrived="0" entered="0" left="1" laneChangedFrom="0" laneChangedTo="0" flow="10.36"/>
        <edge id="-455829556#2" sampledSeconds="14.67" traveltime="14.05" overlapTraveltime="14.67" density="0.46" overlapDensity="0.48" laneDensity="0.46" occupancy="0.23" waitingTime="0.00" timeLoss="1.18" speed="8.40" speedRelative="1.01" departed="0" arrived="1" entered="1" left="0" laneChangedFrom="0" laneChangedTo="0" flow="13.90"/>
        <edge id="-65292475" sampledSeconds="0.00" departed="0" arrived="0" entered="0" left="0" laneChangedFrom="0" laneChangedTo="0"/>
        <edge id="-685037225#1" sampledSeconds="22.77" traveltime="11.33" overlapTraveltime="12.20" density="1.14" overlapDensity="1.24" laneDensity="1.14" occupancy="0.60" waitingTime="0.00" timeLoss="5.25" speed="6.23" speedRelative="0.75" departed="2" arrived="0" entered="0" left="2" laneChangedFrom="0" laneChangedTo="0" flow="25.80"/>
        <edge id="-808547875" sampledSeconds="184.00" overlapTraveltime="100000.00" density="266.67" overlapDensity="266.67" laneDensity="133.33" occupancy="35.52" waitingTime="184.00" timeLoss="184.00" speed="0.00" speedRelative="0.00" departed="1" arrived="0" entered="0" left="0" laneChangedFrom="0" laneChangedTo="0" flow="0.00"/>
        <edge id="-945850922" sampledSeconds="125.39" traveltime="16.84" overlapTraveltime="17.67" density="3.81" overlapDensity="3.99" laneDensity="3.81" occupancy="1.93" waitingTime="0.00" timeLoss="17.28" speed="7.15" speedRelative="0.86" departed="4" arrived="0" entered="4" left="7" laneChangedFrom="0" laneChangedTo="0" flow="98.67"/>
        <edge id="1023996215#0" sampledSeconds="353.71" traveltime="21.86" overlapTraveltime="22.74" density="9.27" overlapDensity="9.62" laneDensity="9.27" occupancy="4.67" waitingTime="17.00" timeLoss="75.97" speed="6.46" speedRelative="0.78" departed="4" arrived="3" entered="12" left="12" laneChangedFrom="0" laneChangedTo="0" flow="216.89"/>
        <edge id="103538896" sampledSeconds="93.39" traveltime="15.61" overlapTraveltime="16.26" density="3.02" overlapDensity="3.15" laneDensity="3.02" occupancy="1.54" waitingTime="0.00" timeLoss="16.81" speed="7.35" speedRelative="0.88" departed="6" arrived="0" entered="0" left="6" laneChangedFrom="0" laneChangedTo="0" flow="79.68"/>
        <edge id="1067121593#0" sampledSeconds="497.92" traveltime="24.82" overlapTraveltime="26.36" density="12.27" overlapDensity="13.03" laneDensity="12.27" occupancy="6.25" waitingTime="60.00" timeLoss="157.56" speed="5.79" speedRelative="0.69" departed="3" arrived="2" entered="16" left="17" laneChangedFrom="0" laneChangedTo="0" flow="262.65"/>
        <edge id="1103834241" sampledSeconds="101.99" traveltime="5.93" overlapTraveltime="6.61" density="9.51" overlapDensity="10.48" laneDensity="9.51" occupancy="4.68" waitingTime="0.00" timeLoss="20.94" speed="6.44" speedRelative="0.77" departed="5" arrived="3" entered="12" left="12" laneChangedFrom="0" laneChangedTo="0" flow="217.11"/>
        <edge id="1221422471" sampledSeconds="0.00" departed="0" arrived="0" entered="0" left="0" laneChangedFrom="0" laneChangedTo="0"/>
        <edge id="135982476#0" sampledSeconds="80.85" traveltime="20.28" overlapTraveltime="20.67" density="1.37" overlapDensity="1.40" laneDensity="0.46" occupancy="0.23" waitingTime="0.00" timeLoss="14.13" speed="11.04" speedRelative="0.80" departed="4" arrived="0" entered="0" left="4" laneChangedFrom="0" laneChangedTo="0" flow="54.33"/>
        <edge id="135982476#3" sampledSeconds="104.67" traveltime="8.53" overlapTraveltime="8.92" density="4.14" overlapDensity="4.33" laneDensity="1.38" occupancy="0.69" waitingTime="0.00" timeLoss="19.53" speed="11.02" speedRelative="0.79" departed="5" arrived="2" entered="7" left="10" laneChangedFrom="4" laneChangedTo="4" flow="163.00"/>
        <edge id="1462715258" sampledSeconds="0.00" departed="0" arrived="0" entered="0" left="0" laneChangedFrom="0" laneChangedTo="0"/>
        <edge id="1467263794#0" sampledSeconds="237.53" traveltime="9.45" overlapTraveltime="9.84" density="7.72" overlapDensity="8.03" laneDensity="2.57" occupancy="1.27" waitingTime="0.00" timeLoss="29.07" speed="12.11" speedRelative="0.87" departed="0" arrived="0" entered="25" left="24" laneChangedFrom="13" laneChangedTo="13" flow="335.61"/>
        <edge id="1467263796#0" sampledSeconds="88.87" traveltime="17.47" overlapTraveltime="17.83" density="1.43" overlapDensity="1.45" laneDensity="0.48" occupancy="0.24" waitingTime="0.00" timeLoss="6.45" speed="13.55" speedRelative="0.98" departed="0" arrived="5" entered="5" left="0" laneChangedFrom="0" laneChangedTo="0" flow="69.50"/>
        <edge id="1467263797#0" sampledSeconds="1871.49" traveltime="49.53" overlapTraveltime="51.08" density="75.69" overlapDensity="77.37" laneDensity="25.23" occupancy="12.55" waitingTime="828.00" timeLoss="1610.06" speed="1.93" speedRelative="0.14" departed="2" arrived="1" entered="40" left="30" laneChangedFrom="5" laneChangedTo="5" flow="513.77"/>
        <edge id="1467263798#0" sampledSeconds="54.48" traveltime="7.56" overlapTraveltime="8.22" density="3.87" overlapDensity="4.23" laneDensity="3.87" occupancy="1.98" waitingTime="0.00" timeLoss="10.55" speed="6.66" speedRelative="0.80" departed="4" arrived="1" entered="3" left="6" laneChangedFrom="0" laneChangedTo="0" flow="91.60"/>
        <edge id="1472800673#0" sampledSeconds="40.89" traveltime="19.87" overlapTraveltime="20.97" density="0.75" overlapDensity="0.80" laneDensity="0.25" occupancy="0.13" waitingTime="0.00" timeLoss="13.09" speed="9.70" speedRelative="0.70" departed="2" arrived="0" entered="0" left="2" laneChangedFrom="0" laneChangedTo="0" flow="27.08"/>
        <edge id="1472850568#0" sampledSeconds="328.38" traveltime="18.38" overlapTraveltime="19.67" density="17.94" overlapDensity="19.04" laneDensity="5.98" occupancy="3.06" waitingTime="163.00" timeLoss="240.18" speed="3.64" speedRelative="0.26" departed="2" arrived="1" entered="15" left="15" laneChangedFrom="14" laneChangedTo="14" flow="233.96"/>
        <edge id="1472850569#0" sampledSeconds="177.65" traveltime="4.73" overlapTraveltime="6.05" density="10.57" overlapDensity="13.44" laneDensity="3.52" occupancy="1.86" waitingTime="18.00" timeLoss="55.75" speed="9.27" speedRelative="0.67" departed="3" arrived="1" entered="27" left="27" laneChangedFrom="17" laneChangedTo="17" flow="410.45"/>
        <edge id="1472850569#1" sampledSeconds="612.47" traveltime="23.26" overlapTraveltime="24.16" density="8.94" overlapDensity="9.27" laneDensity="2.98" occupancy="1.50" waitingTime="48.00" timeLoss="129.41" speed="10.77" speedRelative="0.78" departed="1" arrived="2" entered="26" left="20" laneChangedFrom="32" laneChangedTo="32" flow="353.24"/>
        <edge id="170687890" sampledSeconds="15.67" traveltime="19.01" overlapTraveltime="19.65" density="0.41" overlapDensity="0.41" laneDensity="0.41" occupancy="0.20" waitingTime="0.00" timeLoss="1.36" speed="7.73" speedRelative="0.93" departed="0" arrived="0" entered="1" left="0" laneChangedFrom="0" laneChangedTo="0" flow="11.46"/>
        <edge id="171520872#0" sampledSeconds="0.00" departed="0" arrived="0" entered="0" left="0" laneChangedFrom="0" laneChangedTo="0"/>
        <edge id="210196700#0" sampledSeconds="0.00" departed="0" arrived="0" entered="0" left="0" laneChangedFrom="0" laneChangedTo="0"/>
        <edge id="23185949" sampledSeconds="48.32" traveltime="0.73" overlapTraveltime="1.62" density="133.33" overlapDensity="133.33" laneDensity="133.33" occupancy="14.35" waitingTime="17.76" timeLoss="29.82" speed="3.22" speedRelative="0.39" departed="3" arrived="0" entered="27" left="30" laneChangedFrom="0" laneChangedTo="0" flow="131.42"/>
        <edge id="232512837#0" sampledSeconds="0.00" departed="0" arrived="0" entered="0" left="0" laneChangedFrom="0" laneChangedTo="0"/>
        <edge id="23271710" sampledSeconds="564.89" traveltime="17.60" overlapTraveltime="18.42" density="17.01" overlapDensity="17.76" laneDensity="17.01" occupancy="8.39" waitingTime="0.00" timeLoss="84.27" speed="6.94" speedRelative="0.83" departed="3" arrived="1" entered="30" left="28" laneChangedFrom="0" laneChangedTo="0" flow="427.14"/>
        <edge id="23271717" sampledSeconds="85.62" traveltime="2.75" overlapTraveltime="3.76" density="14.56" overlapDensity="20.00" laneDensity="14.56" occupancy="7.68" waitingTime="0.00" timeLoss="19.84" speed="5.72" speedRelative="0.69" departed="1" arrived="0" entered="22" left="23" laneChangedFrom="0" laneChangedTo="0" flow="315.40"/>
        <edge id="23271728#0" sampledSeconds="24.10" traveltime="7.87" overlapTraveltime="8.57" density="1.71" overlapDensity="1.87" laneDensity="1.71" occupancy="0.87" waitingTime="0.00" timeLoss="5.70" speed="6.38" speedRelative="0.77" departed="2" arrived="0" entered="1" left="3" laneChangedFrom="0" laneChangedTo="0" flow="38.85"/>
        <edge id="23271728#1" sampledSeconds="216.92" traveltime="43.71" overlapTraveltime="44.63" density="2.68" overlapDensity="2.73" laneDensity="2.68" occupancy="1.35" waitingTime="0.00" timeLoss="28.38" speed="6.99" speedRelative="0.84" departed="6" arrived="0" entered="1" left="4" laneChangedFrom="0" laneChangedTo="0" flow="67.75"/>
        <edge id="23271732#0" sampledSeconds="151.93" traveltime="46.38" overlapTraveltime="47.82" density="1.99" overlapDensity="2.04" laneDensity="1.99" occupancy="1.01" waitingTime="20.00" timeLoss="39.07" speed="6.12" speedRelative="0.73" departed="3" arrived="0" entered="2" left="2" laneChangedFrom="0" laneChangedTo="0" flow="44.45"/>
        <edge id="23271762#1" sampledSeconds="94.79" traveltime="3.45" overlapTraveltime="4.12" density="13.69" overlapDensity="16.51" laneDensity="13.69" occupancy="7.02" waitingTime="0.00" timeLoss="20.20" speed="6.59" speedRelative="0.79" departed="8" arrived="0" entered="17" left="24" laneChangedFrom="0" laneChangedTo="0" flow="316.28"/>
        <edge id="23271762#2" sampledSeconds="215.65" traveltime="8.94" overlapTraveltime="9.67" density="11.75" overlapDensity="12.66" laneDensity="11.75" occupancy="5.90" waitingTime="0.00" timeLoss="29.26" speed="7.32" speedRelative="0.88" departed="2" arrived="1" entered="21" left="21" laneChangedFrom="0" laneChangedTo="0" flow="311.20"/>
        <edge id="23271762#3" sampledSeconds="191.53" traveltime="11.10" overlapTraveltime="12.30" density="11.71" overlapDensity="12.92" laneDensity="11.71" occupancy="6.04" waitingTime="24.00" timeLoss="73.70" speed="5.06" speedRelative="0.61" departed="3" arrived="0" entered="13" left="15" laneChangedFrom="0" laneChangedTo="0" flow="217.21"/>
        <edge id="23271799#0" sampledSeconds="85.95" traveltime="28.64" overlapTraveltime="29.33" density="1.50" overlapDensity="1.54" laneDensity="1.50" occupancy="0.76" waitingTime="0.00" timeLoss="11.30" speed="7.54" speedRelative="0.90" departed="3" arrived="0" entered="0" left="3" laneChangedFrom="0" laneChangedTo="0" flow="40.71"/>
        <edge id="23271799#1" sampledSeconds="34.64" traveltime="10.55" overlapTraveltime="11.85" density="1.94" overlapDensity="2.19" laneDensity="1.94" occupancy="1.02" waitingTime="3.00" timeLoss="12.11" speed="5.58" speedRelative="0.67" departed="1" arrived="0" entered="2" left="3" laneChangedFrom="0" laneChangedTo="0" flow="40.54"/>
        <edge id="23276172#0" sampledSeconds="207.11" traveltime="16.18" overlapTraveltime="17.39" density="9.63" overlapDensity="10.30" laneDensity="9.63" occupancy="4.92" waitingTime="47.00" timeLoss="85.87" speed="4.76" speedRelative="0.57" departed="5" arrived="1" entered="8" left="10" laneChangedFrom="0" laneChangedTo="0" flow="166.40"/>
        <edge id="23276195#0" sampledSeconds="702.79" traveltime="26.27" overlapTraveltime="27.15" density="21.47" overlapDensity="22.09" laneDensity="21.47" occupancy="10.76" waitingTime="170.00" timeLoss="307.68" speed="4.71" speedRelative="0.57" departed="1" arrived="0" entered="26" left="23" laneChangedFrom="0" laneChangedTo="0" flow="361.49"/>
        <edge id="23276536" sampledSeconds="85.56" traveltime="16.72" overlapTraveltime="17.38" density="2.54" overlapDensity="2.64" laneDensity="2.54" occupancy="1.28" waitingTime="0.00" timeLoss="10.01" speed="7.48" speedRelative="0.90" departed="2" arrived="0" entered="3" left="5" laneChangedFrom="0" laneChangedTo="0" flow="68.36"/>
        <edge id="23276545" sampledSeconds="412.59" traveltime="62.18" overlapTraveltime="64.04" density="12.35" overlapDensity="12.53" laneDensity="12.35" occupancy="6.14" waitingTime="8.00" timeLoss="108.95" speed="2.06" speedRelative="0.74" departed="2" arrived="0" entered="5" left="4" laneChangedFrom="0" laneChangedTo="0" flow="90.89"/>
        <edge id="23276548" sampledSeconds="51.81" traveltime="51.22" overlapTraveltime="53.58" density="1.82" overlapDensity="1.84" laneDensity="1.82" occupancy="0.89" waitingTime="0.00" timeLoss="13.06" speed="2.12" speedRelative="0.76" departed="0" arrived="1" entered="1" left="0" laneChangedFrom="0" laneChangedTo="0" flow="13.90"/>
        <edge id="23276555" sampledSeconds="243.05" traveltime="48.53" overlapTraveltime="50.32" density="11.53" overlapDensity="11.83" laneDensity="11.53" occupancy="5.75" waitingTime="45.00" timeLoss="99.83" speed="1.68" speedRelative="0.60" departed="2" arrived="0" entered="4" left="4" laneChangedFrom="0" laneChangedTo="0" flow="67.86"/>
        <edge id="23276726#0" sampledSeconds="0.00" departed="0" arrived="0" entered="0" left="0" laneChangedFrom="0" laneChangedTo="0"/>
        <edge id="23276766#0" sampledSeconds="130.89" traveltime="4.02" overlapTraveltime="5.03" density="19.87" overlapDensity="24.88" laneDensity="19.87" occupancy="10.52" waitingTime="12.00" timeLoss="52.12" speed="5.03" speedRelative="0.60" departed="0" arrived="0" entered="26" left="26" laneChangedFrom="0" laneChangedTo="0" flow="361.39"/>
        <edge id="23276766#1" sampledSeconds="173.73" traveltime="20.74" overlapTraveltime="22.24" density="4.79" overlapDensity="5.14" laneDensity="4.79" occupancy="2.47" waitingTime="12.00" timeLoss="38.91" speed="6.09" speedRelative="0.73" departed="5" arrived="0" entered="3" left="8" laneChangedFrom="0" laneChangedTo="0" flow="108.48"/>
        <edge id="23276766#3" sampledSeconds="83.10" traveltime="16.60" overlapTraveltime="17.26" density="2.66" overlapDensity="2.73" laneDensity="2.66" occupancy="1.33" waitingTime="0.00" timeLoss="10.58" speed="7.10" speedRelative="0.85" departed="2" arrived="1" entered="3" left="3" laneChangedFrom="0" laneChangedTo="0" flow="67.78"/>
        <edge id="23295986#0" sampledSeconds="184.05" traveltime="7.74" overlapTraveltime="8.49" density="15.33" overlapDensity="16.86" laneDensity="5.11" occupancy="2.62" waitingTime="57.00" timeLoss="107.09" speed="5.55" speedRelative="0.40" departed="3" arrived="1" entered="19" left="21" laneChangedFrom="11" laneChangedTo="11" flow="300.75"/>
        <edge id="23296952#0" sampledSeconds="771.39" traveltime="22.92" overlapTraveltime="23.69" density="17.49" overlapDensity="18.06" laneDensity="17.49" occupancy="8.74" waitingTime="0.00" timeLoss="105.55" speed="7.17" speedRelative="0.86" departed="0" arrived="0" entered="35" left="31" laneChangedFrom="0" laneChangedTo="0" flow="453.32"/>
        <edge id="237638594#0" sampledSeconds="0.00" departed="0" arrived="0" entered="0" left="0" laneChangedFrom="0" laneChangedTo="0"/>
        <edge id="237638594#1" sampledSeconds="98.43" traveltime="25.43" overlapTraveltime="26.06" density="1.84" overlapDensity="1.88" laneDensity="1.84" occupancy="0.93" waitingTime="0.00" timeLoss="9.57" speed="7.96" speedRelative="0.96" departed="2" arrived="2" entered="2" left="1" laneChangedFrom="0" laneChangedTo="0" flow="52.81"/>
        <edge id="237638594#2" sampledSeconds="385.91" traveltime="21.15" overlapTraveltime="22.25" density="10.24" overlapDensity="10.73" laneDensity="10.24" occupancy="5.15" waitingTime="10.00" timeLoss="76.14" speed="6.47" speedRelative="0.78" departed="3" arrived="2" entered="15" left="15" laneChangedFrom="0" laneChangedTo="0" flow="242.03"/>
        <edge id="23837909#0" sampledSeconds="32.91" traveltime="19.87" overlapTraveltime="20.26" density="0.50" overlapDensity="0.50" laneDensity="0.17" occupancy="0.08" waitingTime="0.00" timeLoss="1.50" speed="12.85" speedRelative="0.92" departed="0" arrived="1" entered="2" left="0" laneChangedFrom="0" laneChangedTo="0" flow="22.92"/>
        <edge id="23837911#0" sampledSeconds="16.25" traveltime="2.02" overlapTraveltime="2.51" density="3.31" overlapDensity="4.21" laneDensity="1.10" occupancy="0.57" waitingTime="0.00" timeLoss="6.87" speed="7.94" speedRelative="0.57" departed="2" arrived="0" entered="5" left="7" laneChangedFrom="0" laneChangedTo="0" flow="87.78"/>
        <edge id="23837911#1" sampledSeconds="259.61" traveltime="16.92" overlapTraveltime="17.33" density="4.51" overlapDensity="4.62" laneDensity="1.50" occupancy="0.75" waitingTime="0.00" timeLoss="17.64" speed="12.81" speedRelative="0.92" departed="1" arrived="1" entered="14" left="14" laneChangedFrom="8" laneChangedTo="8" flow="208.17"/>
        <edge id="23837911#4" sampledSeconds="379.54" traveltime="21.48" overlapTraveltime="22.56" density="13.51" overlapDensity="14.16" laneDensity="4.50" occupancy="2.29" waitingTime="181.00" timeLoss="247.81" speed="4.81" speedRelative="0.35" departed="2" arrived="0" entered="15" left="16" laneChangedFrom="22" laneChangedTo="22" flow="234.37"/>
        <edge id="292179033#0" sampledSeconds="425.37" traveltime="8.69" overlapTraveltime="9.48" density="22.81" overlapDensity="24.65" laneDensity="7.60" occupancy="3.85" waitingTime="65.00" timeLoss="196.12" speed="7.56" speedRelative="0.54" departed="4" arrived="1" entered="43" left="39" laneChangedFrom="50" laneChangedTo="50" flow="629.48"/>
        <edge id="292179033#4" sampledSeconds="336.90" traveltime="7.20" overlapTraveltime="7.69" density="14.68" overlapDensity="15.65" laneDensity="4.89" occupancy="2.44" waitingTime="0.00" timeLoss="57.57" speed="11.46" speedRelative="0.83" departed="2" arrived="2" entered="42" left="42" laneChangedFrom="24" laneChangedTo="24" flow="609.88"/>
        <edge id="292179033#6" sampledSeconds="515.19" traveltime="9.65" overlapTraveltime="10.05" density="16.59" overlapDensity="17.26" laneDensity="5.53" occupancy="2.75" waitingTime="0.00" timeLoss="71.39" speed="11.97" speedRelative="0.86" departed="7" arrived="1" entered="47" left="49" laneChangedFrom="36" laneChangedTo="36" flow="713.68"/>
        <edge id="292179033#7" sampledSeconds="150.56" traveltime="2.45" overlapTraveltime="2.90" density="17.62" overlapDensity="20.75" laneDensity="5.87" occupancy="2.95" waitingTime="0.00" timeLoss="25.28" speed="11.36" speedRelative="0.82" departed="2" arrived="2" entered="52" left="49" laneChangedFrom="12" laneChangedTo="12" flow="724.55"/>
        <edge id="292179033#9" sampledSeconds="711.34" traveltime="14.11" overlapTraveltime="15.47" density="29.58" overlapDensity="32.26" laneDensity="9.86" occupancy="5.07" waitingTime="156.00" timeLoss="417.91" speed="5.83" speedRelative="0.42" departed="3" arrived="2" entered="48" left="40" laneChangedFrom="5" laneChangedTo="5" flow="642.35"/>
        <edge id="30814311#0" sampledSeconds="128.94" traveltime="25.37" overlapTraveltime="25.99" density="2.38" overlapDensity="2.43" laneDensity="2.38" occupancy="1.19" waitingTime="0.00" timeLoss="14.17" speed="8.08" speedRelative="0.97" departed="1" arrived="3" entered="4" left="2" laneChangedFrom="0" laneChangedTo="0" flow="69.15"/>
        <edge id="30814438#0" sampledSeconds="0.00" departed="0" arrived="0" entered="0" left="0" laneChangedFrom="0" laneChangedTo="0"/>
        <edge id="30814438#2" sampledSeconds="11.09" traveltime="2.24" overlapTraveltime="3.11" density="2.69" overlapDensity="3.74" laneDensity="2.69" occupancy="1.42" waitingTime="0.00" timeLoss="3.11" speed="5.29" speedRelative="0.63" departed="1" arrived="0" entered="3" left="4" laneChangedFrom="0" laneChangedTo="0" flow="49.40"/>
        <edge id="30824033#0" sampledSeconds="170.32" traveltime="16.83" overlapTraveltime="17.54" density="5.00" overlapDensity="5.20" laneDensity="5.00" occupancy="2.50" waitingTime="0.00" timeLoss="21.92" speed="7.50" speedRelative="0.90" departed="1" arrived="1" entered="9" left="8" laneChangedFrom="0" laneChangedTo="0" flow="135.36"/>
        <edge id="30824033#2" sampledSeconds="594.15" traveltime="31.21" overlapTraveltime="32.16" density="13.84" overlapDensity="14.21" laneDensity="13.84" occupancy="6.93" waitingTime="146.00" timeLoss="234.65" speed="5.17" speedRelative="0.62" departed="3" arrived="2" entered="17" left="15" laneChangedFrom="0" laneChangedTo="0" flow="257.65"/>