<?xml version="1.0" encoding="UTF-8"?>

<!-- generated on 2026-03-18T13:12:17.678365+01:00 by Eclipse SUMO GUI 1.26.0
<sumoConfiguration xmlns:xsi="http://www.w3.org/2001/XMLSchema-instance" xsi:noNamespaceSchemaLocation="http://sumo.dlr.de/xsd/sumoConfiguration.xsd">

    <input>
        <net-file value="osm.net.xml.gz"/>
        <route-files value="osm.passenger.trips.xml"/>
        <additional-files value="rilevazioni/output.add.xml"/>
    </input>

    <output>
        <tripinfo-output value="output/tripinfos.xml"/>
        <statistic-output value="output/stats.xml"/>
    </output>

    <processing>
        <ignore-route-errors value="true"/>
        <tls.actuated.jam-threshold value="30"/>
    </processing>

    <routing>
        <device.rerouting.adaptation-steps value="18"/>
        <device.rerouting.adaptation-interval value="10"/>
    </routing>

    <report>
        <verbose value="true"/>
        <duration-log.statistics value="true"/>
        <no-step-log value="true"/>
    </report>

    <gui_only>
        <gui-settings-file value="osm.view.xml"/>
    </gui_only>

</sumoConfiguration>
-->

<meandata xmlns:xsi="http://www.w3.org/2001/XMLSchema-instance" xsi:noNamespaceSchemaLocation="http://sumo.dlr.de/xsd/meandata_file.xsd">
    <interval begin="0.00" end="3600.00" id="wizard_example">
        <edge id="-1023996215#2" sampledSeconds="155.77" traveltime="19.16" overlapTraveltime="19.82" density="0.30" overlapDensity="0.31" laneDensity="0.30" occupancy="0.15" waitingTime="0.00" timeLoss="18.40" speed="7.32" speedRelative="0.88" departed="4" arrived="0" entered="4" left="8" laneChangedFrom="0" laneChangedTo="0" flow="7.85"/>
        <edge id="-103538896" sampledSeconds="93.64" traveltime="15.09" overlapTraveltime="15.78" density="0.22" overlapDensity="0.23" laneDensity="0.22" occupancy="0.11" waitingTime="0.00" timeLoss="7.90" speed="7.54" speedRelative="0.91" departed="0" arrived="6" entered="6" left="0" laneChangedFrom="0" laneChangedTo="0" flow="6.00"/>
        <edge id="-1103834241" sampledSeconds="48.13" traveltime="4.94" overlapTraveltime="6.13" density="0.31" overlapDensity="0.38" laneDensity="0.31" occupancy="0.16" waitingTime="0.00" timeLoss="6.77" speed="6.55" speedRelative="0.79" departed="0" arrived="3" entered="8" left="5" laneChangedFrom="0" laneChangedTo="0" flow="8.00"/>
        <edge id="-170687890" sampledSeconds="129.49" traveltime="21.32" overlapTraveltime="22.31" density="0.23" overlapDensity="0.24" laneDensity="0.23" occupancy="0.12" waitingTime="0.00" timeLoss="12.17" speed="7.03" speedRelative="0.84" departed="6" arrived="0" entered="0" left="6" laneChangedFrom="0" laneChangedTo="0" flow="5.80"/>
        <edge id="-171520872#1" sampledSeconds="455.62" traveltime="113.35" overlapTraveltime="115.66" density="0.51" overlapDensity="0.51" laneDensity="0.51" occupancy="0.25" waitingTime="0.00" timeLoss="103.86" speed="2.18" speedRelative="0.79" departed="0" arrived="4" entered="4" left="0" laneChangedFrom="0" laneChangedTo="0" flow="4.00"/>
        <edge id="-23185949" sampledSeconds="6.96" traveltime="0.05" overlapTraveltime="1.16" density="0.40" overlapDensity="9.67" laneDensity="0.40" occupancy="0.19" waitingTime="0.00" timeLoss="2.41" speed="4.48" speedRelative="0.54" departed="0" arrived="0" entered="6" left="6" laneChangedFrom="0" laneChangedTo="0" flow="6.00"/>
        <edge id="-23276766#0" sampledSeconds="17.09" traveltime="2.92" overlapTraveltime="3.56" density="0.20" overlapDensity="0.23" laneDensity="0.20" occupancy="0.09" waitingTime="0.00" timeLoss="2.77" speed="7.14" speedRelative="0.86" departed="0" arrived="2" entered="5" left="3" laneChangedFrom="0" laneChangedTo="0" flow="5.00"/>
        <edge id="-23276766#2" sampledSeconds="153.97" traveltime="16.29" overlapTraveltime="17.11" density="0.31" overlapDensity="0.33" laneDensity="0.31" occupancy="0.16" waitingTime="0.00" timeLoss="12.23" speed="7.97" speedRelative="0.96" departed="0" arrived="0" entered="9" left="9" laneChangedFrom="0" laneChangedTo="0" flow="9.00"/>
        <edge id="-23296952#2" sampledSeconds="374.53" traveltime="22.54" overlapTraveltime="23.41" density="0.61" overlapDensity="0.63" laneDensity="0.61" occupancy="0.30" waitingTime="0.00" timeLoss="36.83" speed="7.28" speedRelative="0.87" departed="0" arrived="0" entered="16" left="16" laneChangedFrom="0" laneChangedTo="0" flow="16.00"/>
        <edge id="-237638594#0" sampledSeconds="75.53" traveltime="12.23" overlapTraveltime="12.87" density="0.21" overlapDensity="0.22" laneDensity="0.21" occupancy="0.11" waitingTime="0.00" timeLoss="6.59" speed="7.80" speedRelative="0.94" departed="0" arrived="6" entered="6" left="0" laneChangedFrom="0" laneChangedTo="0" flow="6.00"/>
        <edge id="-237638594#1" sampledSeconds="47.88" traveltime="23.34" overlapTraveltime="23.94" density="0.07" overlapDensity="0.07" laneDensity="0.07" occupancy="0.03" waitingTime="0.00" timeLoss="3.17" speed="8.51" speedRelative="1.02" departed="0" arrived="1" entered="2" left="1" laneChangedFrom="0" laneChangedTo="0" flow="2.00"/>
        <edge id="-237638594#3" sampledSeconds="229.18" traveltime="18.35" overlapTraveltime="19.19" density="0.44" overlapDensity="0.46" laneDensity="0.44" occupancy="0.22" waitingTime="0.00" timeLoss="21.10" speed="7.51" speedRelative="0.90" departed="1" arrived="1" entered="11" left="11" laneChangedFrom="0" laneChangedTo="0" flow="11.96"/>
        <edge id="-30814311#1" sampledSeconds="47.27" traveltime="23.46" overlapTraveltime="24.05" density="0.07" overlapDensity="0.07" laneDensity="0.07" occupancy="0.03" waitingTime="0.00" timeLoss="5.96" speed="8.25" speedRelative="0.99" departed="1" arrived="1" entered="1" left="1" laneChangedFrom="0" laneChangedTo="0" flow="1.97"/>
        <edge id="-30824033#1" sampledSeconds="262.96" traveltime="16.71" overlapTraveltime="17.45" density="0.55" overlapDensity="0.57" laneDensity="0.55" occupancy="0.27" waitingTime="0.00" timeLoss="22.35" speed="7.66" speedRelative="0.92" departed="0" arrived="1" entered="16" left="14" laneChangedFrom="0" laneChangedTo="0" flow="15.10"/>
        <edge id="-30824033#5" sampledSeconds="518.61" traveltime="21.75" overlapTraveltime="22.61" density="0.86" overlapDensity="0.89" laneDensity="0.86" occupancy="0.43" waitingTime="0.00" timeLoss="55.35" speed="7.35" speedRelative="0.88" departed="2" arrived="0" entered="21" left="23" laneChangedFrom="0" laneChangedTo="0" flow="22.94"/>
        <edge id="-33523355#1" sampledSeconds="51.49" traveltime="4.59" overlapTraveltime="5.36" density="0.37" overlapDensity="0.43" laneDensity="0.37" occupancy="0.19" waitingTime="0.00" timeLoss="11.39" speed="7.08" speedRelative="0.85" departed="2" arrived="2" entered="8" left="8" laneChangedFrom="0" laneChangedTo="0" flow="9.69"/>
        <edge id="-33523355#2" sampledSeconds="45.93" traveltime="7.28" overlapTraveltime="7.87" density="0.21" overlapDensity="0.22" laneDensity="0.21" occupancy="0.10" waitingTime="0.00" timeLoss="5.92" speed="7.89" speedRelative="0.95" departed="2" arrived="0" entered="4" left="6" laneChangedFrom="0" laneChangedTo="0" flow="5.82"/>
        <edge id="-33523355#3" sampledSeconds="43.33" traveltime="5.61" overlapTraveltime="6.47" density="0.27" overlapDensity="0.31" laneDensity="0.27" occupancy="0.14" waitingTime="0.00" timeLoss="8.07" speed="6.69" speedRelative="0.80" departed="2" arrived="2" entered="5" left="5" laneChangedFrom="0" laneChangedTo="0" flow="6.73"/>
        <edge id="-33523355#4" sampledSeconds="52.32" traveltime="9.82" overlapTraveltime="10.60" density="0.18" overlapDensity="0.19" laneDensity="0.18" occupancy="0.09" waitingTime="0.00" timeLoss="7.08" speed="7.69" speedRelative="0.92" departed="1" arrived="1" entered="4" left="4" laneChangedFrom="0" laneChangedTo="0" flow="4.93"/>
        <edge id="-33523578#2" sampledSeconds="43.83" traveltime="5.43" overlapTraveltime="6.05" density="0.25" overlapDensity="0.29" laneDensity="0.25" occupancy="0.13" waitingTime="0.00" timeLoss="4.10" speed="7.88" speedRelative="0.95" departed="7" arrived="0" entered="1" left="8" laneChangedFrom="0" laneChangedTo="0" flow="7.16"/>
        <edge id="-37711918" sampledSeconds="25.11" traveltime="5.00" overlapTraveltime="5.79" density="0.18" overlapDensity="0.21" laneDensity="0.18" occupancy="0.10" waitingTime="0.00" timeLoss="4.50" speed="6.66" speedRelative="0.80" departed="5" arrived="0" entered="0" left="5" laneChangedFrom="0" laneChangedTo="0" flow="4.24"/>
        <edge id="-379112060#2" sampledSeconds="68.11" traveltime="4.07" overlapTraveltime="5.27" density="2.04" overlapDensity="2.62" laneDensity="2.04" occupancy="1.06" waitingTime="22.00" timeLoss="47.47" speed="2.32" speedRelative="0.28" departed="0" arrived="1" entered="13" left="12" laneChangedFrom="0" laneChangedTo="0" flow="13.00"/>
        <edge id="-38592259" sampledSeconds="15.17" traveltime="3.13" overlapTraveltime="3.81" density="0.16" overlapDensity="0.21" laneDensity="0.16" occupancy="0.09" waitingTime="0.00" timeLoss="2.93" speed="6.57" speedRelative="0.79" departed="5" arrived="0" entered="0" left="5" laneChangedFrom="0" laneChangedTo="0" flow="3.73"/>
        <edge id="-455829556#2" sampledSeconds="51.08" traveltime="16.59" overlapTraveltime="17.31" density="0.12" overlapDensity="0.12" laneDensity="0.12" occupancy="0.06" waitingTime="0.00" timeLoss="4.16" speed="7.12" speedRelative="0.85" departed="0" arrived="3" entered="3" left="0" laneChangedFrom="0" laneChangedTo="0" flow="3.00"/>
        <edge id="-65292475" sampledSeconds="0.00" departed="0" arrived="0" entered="0" left="0" laneChangedFrom="0" laneChangedTo="0"/>
        <edge id="-685037225#1" sampledSeconds="20.21" traveltime="9.98" overlapTraveltime="10.83" density="0.07" overlapDensity="0.08" laneDensity="0.07" occupancy="0.04" waitingTime="0.00" timeLoss="1.94" speed="7.01" speedRelative="0.84" departed="2" arrived="0" entered="0" left="2" laneChangedFrom="0" laneChangedTo="0" flow="1.86"/>
        <edge id="-808547875" sampledSeconds="16.97" overlapTraveltime="8.83" density="18.06" overlapDensity="23.57" laneDensity="9.03" occupancy="0.23" waitingTime="13.00" timeLoss="15.21" speed="0.59" speedRelative="0.07" departed="2" arrived="0" entered="0" left="2" laneChangedFrom="0" laneChangedTo="0" flow="0.00"/>
        <edge id="-945850922" sampledSeconds="156.91" traveltime="15.22" overlapTraveltime="15.85" density="0.35" overlapDensity="0.36" laneDensity="0.35" occupancy="0.17" waitingTime="0.00" timeLoss="15.24" speed="7.97" speedRelative="0.96" departed="2" arrived="1" entered="8" left="9" laneChangedFrom="0" laneChangedTo="0" flow="9.92"/>
        <edge id="1023996215#0" sampledSeconds="98.70" traveltime="19.11" overlapTraveltime="19.88" density="0.19" overlapDensity="0.19" laneDensity="0.19" occupancy="0.09" waitingTime="0.00" timeLoss="9.57" speed="7.40" speedRelative="0.89" departed="1" arrived="0" entered="4" left="5" laneChangedFrom="0" laneChangedTo="0" flow="4.96"/>
        <edge id="103538896" sampledSeconds="122.07" traveltime="15.18" overlapTraveltime="15.94" density="0.28" overlapDensity="0.30" laneDensity="0.28" occupancy="0.14" waitingTime="0.00" timeLoss="10.57" speed="7.50" speedRelative="0.90" departed="8" arrived="0" entered="0" left="8" laneChangedFrom="0" laneChangedTo="0" flow="7.64"/>
        <edge id="1067121593#0" sampledSeconds="307.78" traveltime="19.93" overlapTraveltime="20.64" density="0.56" overlapDensity="0.58" laneDensity="0.56" occupancy="0.28" waitingTime="0.00" timeLoss="30.28" speed="7.39" speedRelative="0.89" departed="1" arrived="2" entered="14" left="13" laneChangedFrom="0" laneChangedTo="0" flow="14.97"/>
        <edge id="1103834241" sampledSeconds="26.49" traveltime="6.17" overlapTraveltime="6.83" density="0.18" overlapDensity="0.20" laneDensity="0.18" occupancy="0.08" waitingTime="0.00" timeLoss="6.21" speed="6.24" speedRelative="0.75" departed="1" arrived="0" entered="3" left="4" laneChangedFrom="0" laneChangedTo="0" flow="3.86"/>
        <edge id="1221422471" sampledSeconds="37.73" traveltime="5.93" overlapTraveltime="6.58" density="0.23" overlapDensity="0.24" laneDensity="0.23" occupancy="0.11" waitingTime="0.00" timeLoss="3.50" speed="7.36" speedRelative="0.88" departed="0" arrived="6" entered="6" left="0" laneChangedFrom="0" laneChangedTo="0" flow="6.00"/>
        <edge id="135982476#0" sampledSeconds="349.51" traveltime="16.66" overlapTraveltime="17.02" density="0.43" overlapDensity="0.43" laneDensity="0.14" occupancy="0.07" waitingTime="0.00" timeLoss="16.11" speed="13.41" speedRelative="0.97" departed="21" arrived="0" entered="0" left="21" laneChangedFrom="14" laneChangedTo="14" flow="20.52"/>
        <edge id="135982476#3" sampledSeconds="241.22" traveltime="7.48" overlapTraveltime="7.85" density="0.69" overlapDensity="0.72" laneDensity="0.23" occupancy="0.11" waitingTime="0.00" timeLoss="28.01" speed="12.52" speedRelative="0.90" departed="3" arrived="6" entered="28" left="25" laneChangedFrom="6" laneChangedTo="6" flow="30.84"/>
        <edge id="1462715258" sampledSeconds="5.09" traveltime="1.28" overlapTraveltime="1.92" density="0.07" overlapDensity="0.14" laneDensity="0.07" occupancy="0.05" waitingTime="0.00" timeLoss="0.31" speed="7.90" speedRelative="0.95" departed="4" arrived="0" entered="0" left="4" laneChangedFrom="0" laneChangedTo="0" flow="1.99"/>
        <edge id="1467263794#0" sampledSeconds="307.17" traveltime="9.25" overlapTraveltime="9.63" density="0.72" overlapDensity="0.75" laneDensity="0.24" occupancy="0.12" waitingTime="0.00" timeLoss="32.12" speed="12.37" speedRelative="0.89" departed="1" arrived="3" entered="31" left="29" laneChangedFrom="17" laneChangedTo="17" flow="31.96"/>
        <edge id="1467263796#0" sampledSeconds="286.55" traveltime="18.76" overlapTraveltime="19.16" density="0.33" overlapDensity="0.34" laneDensity="0.11" occupancy="0.05" waitingTime="0.00" timeLoss="16.34" speed="12.61" speedRelative="0.91" departed="0" arrived="15" entered="15" left="0" laneChangedFrom="1" laneChangedTo="1" flow="15.00"/>
        <edge id="1467263797#0" sampledSeconds="899.00" traveltime="13.42" overlapTraveltime="14.50" density="2.47" overlapDensity="2.67" laneDensity="0.82" occupancy="0.43" waitingTime="272.00" timeLoss="449.66" speed="6.78" speedRelative="0.49" departed="0" arrived="4" entered="62" left="58" laneChangedFrom="0" laneChangedTo="0" flow="62.00"/>
        <edge id="1467263798#0" sampledSeconds="77.22" traveltime="6.40" overlapTraveltime="7.02" density="0.39" overlapDensity="0.43" laneDensity="0.39" occupancy="0.19" waitingTime="0.00" timeLoss="7.82" speed="7.80" speedRelative="0.94" departed="0" arrived="1" entered="11" left="10" laneChangedFrom="0" laneChangedTo="0" flow="11.00"/>
        <edge id="1472800673#0" sampledSeconds="397.01" traveltime="16.93" overlapTraveltime="17.71" density="0.53" overlapDensity="0.56" laneDensity="0.18" occupancy="0.09" waitingTime="22.00" timeLoss="72.21" speed="11.48" speedRelative="0.83" departed="23" arrived="0" entered="0" left="23" laneChangedFrom="2" laneChangedTo="2" flow="22.41"/>
        <edge id="1472850568#0" sampledSeconds="576.71" traveltime="12.30" overlapTraveltime="13.48" density="2.20" overlapDensity="2.41" laneDensity="0.73" occupancy="0.38" waitingTime="199.00" timeLoss="352.97" speed="5.31" speedRelative="0.38" departed="3" arrived="3" entered="40" left="40" laneChangedFrom="26" laneChangedTo="26" flow="42.77"/>
        <edge id="1472850569#0" sampledSeconds="180.68" traveltime="4.36" overlapTraveltime="4.81" density="0.89" overlapDensity="0.98" laneDensity="0.30" occupancy="0.15" waitingTime="0.00" timeLoss="25.35" speed="11.64" speedRelative="0.84" departed="4" arrived="2" entered="34" left="36" laneChangedFrom="10" laneChangedTo="10" flow="37.60"/>
        <edge id="1472850569#1" sampledSeconds="1176.26" traveltime="23.49" overlapTraveltime="24.53" density="1.23" overlapDensity="1.28" laneDensity="0.41" occupancy="0.21" waitingTime="86.00" timeLoss="272.42" speed="10.61" speedRelative="0.76" departed="2" arrived="0" entered="46" left="48" laneChangedFrom="57" laneChangedTo="57" flow="47.96"/>
        <edge id="170687890" sampledSeconds="35.78" traveltime="17.56" overlapTraveltime="18.12" density="0.07" overlapDensity="0.07" laneDensity="0.07" occupancy="0.03" waitingTime="0.00" timeLoss="2.78" speed="8.38" speedRelative="1.01" departed="0" arrived="2" entered="2" left="0" laneChangedFrom="0" laneChangedTo="0" flow="2.00"/>
        <edge id="171520872#0" sampledSeconds="361.08" traveltime="121.53" overlapTraveltime="122.91" density="0.41" overlapDensity="0.42" laneDensity="0.41" occupancy="0.21" waitingTime="0.00" timeLoss="92.58" speed="2.00" speedRelative="0.72" departed="3" arrived="0" entered="0" left="3" laneChangedFrom="0" laneChangedTo="0" flow="2.94"/>
        <edge id="210196700#0" sampledSeconds="0.00" departed="0" arrived="0" entered="0" left="0" laneChangedFrom="0" laneChangedTo="0"/>
        <edge id="23185949" sampledSeconds="13.64" traveltime="0.03" overlapTraveltime="0.74" density="0.90" overlapDensity="18.94" laneDensity="0.90" occupancy="0.36" waitingTime="0.00" timeLoss="1.91" speed="7.02" speedRelative="0.84" departed="0" arrived="2" entered="20" left="18" laneChangedFrom="0" laneChangedTo="0" flow="20.00"/>
        <edge id="232512837#0" sampledSeconds="0.00" departed="0" arrived="0" entered="0" left="0" laneChangedFrom="0" laneChangedTo="0"/>
        <edge id="23271710" sampledSeconds="733.73" traveltime="16.79" overlapTraveltime="17.49" density="1.59" overlapDensity="1.66" laneDensity="1.59" occupancy="0.78" waitingTime="0.00" timeLoss="88.22" speed="7.31" speedRelative="0.88" departed="1" arrived="0" entered="41" left="42" laneChangedFrom="0" laneChangedTo="0" flow="41.96"/>
        <edge id="23271717" sampledSeconds="132.61" traveltime="2.43" overlapTraveltime="3.42" density="1.58" overlapDensity="2.23" laneDensity="1.58" occupancy="0.85" waitingTime="0.00" timeLoss="22.09" speed="6.29" speedRelative="0.76" departed="1" arrived="0" entered="38" left="39" laneChangedFrom="0" laneChangedTo="0" flow="38.69"/>
        <edge id="23271728#0" sampledSeconds="38.03" traveltime="7.13" overlapTraveltime="7.76" density="0.20" overlapDensity="0.21" laneDensity="0.20" occupancy="0.09" waitingTime="0.00" timeLoss="6.65" speed="7.05" speedRelative="0.85" departed="0" arrived="2" entered="5" left="3" laneChangedFrom="0" laneChangedTo="0" flow="5.00"/>
        <edge id="23271728#1" sampledSeconds="116.06" traveltime="37.98" overlapTraveltime="38.69" density="0.10" overlapDensity="0.10" laneDensity="0.10" occupancy="0.05" waitingTime="0.00" timeLoss="9.78" speed="8.07" speedRelative="0.97" departed="0" arrived="2" entered="3" left="1" laneChangedFrom="0" laneChangedTo="0" flow="3.00"/>
        <edge id="23271732#0" sampledSeconds="73.17" traveltime="36.46" overlapTraveltime="37.23" density="0.07" overlapDensity="0.07" laneDensity="0.07" occupancy="0.03" waitingTime="0.00" timeLoss="8.85" speed="7.86" speedRelative="0.94" departed="2" arrived="0" entered="0" left="2" laneChangedFrom="0" laneChangedTo="0" flow="1.96"/>
        <edge id="23271762#1" sampledSeconds="54.09" traveltime="3.07" overlapTraveltime="3.74" density="0.56" overlapDensity="0.68" laneDensity="0.56" occupancy="0.28" waitingTime="0.00" timeLoss="6.67" speed="7.27" speedRelative="0.87" departed="2" arrived="1" entered="13" left="14" laneChangedFrom="0" laneChangedTo="0" flow="14.54"/>
        <edge id="23271762#2" sampledSeconds="124.08" traveltime="8.88" overlapTraveltime="9.60" density="0.48" overlapDensity="0.52" laneDensity="0.48" occupancy="0.24" waitingTime="0.00" timeLoss="11.58" speed="7.38" speedRelative="0.89" departed="1" arrived="0" entered="12" left="13" laneChangedFrom="0" laneChangedTo="0" flow="12.92"/>
        <edge id="23271762#3" sampledSeconds="107.35" traveltime="8.80" overlapTraveltime="9.83" density="0.47" overlapDensity="0.52" laneDensity="0.47" occupancy="0.24" waitingTime="3.00" timeLoss="21.39" speed="6.33" speedRelative="0.76" departed="1" arrived="0" entered="10" left="11" laneChangedFrom="0" laneChangedTo="0" flow="10.91"/>
        <edge id="23271799#0" sampledSeconds="62.15" traveltime="30.89" overlapTraveltime="31.81" density="0.08" overlapDensity="0.08" laneDensity="0.08" occupancy="0.04" waitingTime="0.00" timeLoss="5.32" speed="6.95" speedRelative="0.83" departed="2" arrived="0" entered="0" left="2" laneChangedFrom="0" laneChangedTo="0" flow="1.95"/>
        <edge id="23271799#1" sampledSeconds="8.35" traveltime="7.68" overlapTraveltime="8.35" density="0.03" overlapDensity="0.04" laneDensity="0.03" occupancy="0.02" waitingTime="0.00" timeLoss="0.59" speed="7.92" speedRelative="0.95" departed="0" arrived="0" entered="1" left="1" laneChangedFrom="0" laneChangedTo="0" flow="1.00"/>
        <edge id="23276172#0" sampledSeconds="58.93" traveltime="11.27" overlapTraveltime="12.31" density="0.20" overlapDensity="0.21" laneDensity="0.20" occupancy="0.10" waitingTime="0.00" timeLoss="8.43" speed="6.72" speedRelative="0.81" departed="2" arrived="2" entered="3" left="3" laneChangedFrom="0" laneChangedTo="0" flow="4.87"/>
        <edge id="23276195#0" sampledSeconds="831.58" traveltime="23.31" overlapTraveltime="24.46" density="1.79" overlapDensity="1.88" laneDensity="1.79" occupancy="0.91" waitingTime="196.00" timeLoss="316.87" speed="5.23" speedRelative="0.63" departed="0" arrived="0" entered="34" left="34" laneChangedFrom="0" laneChangedTo="0" flow="34.00"/>
        <edge id="23276536" sampledSeconds="30.71" traveltime="14.74" overlapTraveltime="15.36" density="0.07" overlapDensity="0.07" laneDensity="0.07" occupancy="0.03" waitingTime="0.00" timeLoss="2.60" speed="8.47" speedRelative="1.02" departed="0" arrived="2" entered="2" left="0" laneChangedFrom="0" laneChangedTo="0" flow="2.00"/>
        <edge id="23276545" sampledSeconds="231.03" traveltime="56.84" overlapTraveltime="58.32" density="0.49" overlapDensity="0.50" laneDensity="0.49" occupancy="0.25" waitingTime="3.00" timeLoss="54.28" speed="2.27" speedRelative="0.81" departed="1" arrived="0" entered="3" left="4" laneChangedFrom="0" laneChangedTo="0" flow="3.96"/>
        <edge id="23276548" sampledSeconds="0.00" departed="0" arrived="0" entered="0" left="0" laneChangedFrom="0" laneChangedTo="0"/>
        <edge id="23276555" sampledSeconds="221.29" traveltime="36.14" overlapTraveltime="37.63" density="0.75" overlapDensity="0.78" laneDensity="0.75" occupancy="0.37" waitingTime="0.00" timeLoss="51.14" speed="2.24" speedRelative="0.81" departed="1" arrived="1" entered="5" left="5" laneChangedFrom="0" laneChangedTo="0" flow="5.94"/>
        <edge id="23276726#0" sampledSeconds="174.41" traveltime="34.39" overlapTraveltime="35.05" density="0.18" overlapDensity="0.18" laneDensity="0.18" occupancy="0.09" waitingTime="0.00" timeLoss="14.25" speed="7.64" speedRelative="0.92" departed="0" arrived="5" entered="5" left="0" laneChangedFrom="0" laneChangedTo="0" flow="5.00"/>
        <edge id="23276766#0" sampledSeconds="160.50" traveltime="3.01" overlapTraveltime="3.78" density="1.75" overlapDensity="2.20" laneDensity="1.75" occupancy="0.89" waitingTime="0.00" timeLoss="29.62" speed="6.69" speedRelative="0.80" departed="2" arrived="1" entered="41" left="42" laneChangedFrom="0" laneChangedTo="0" flow="42.50"/>
        <edge id="23276766#1" sampledSeconds="214.47" traveltime="17.12" overlapTraveltime="17.87" density="0.44" overlapDensity="0.46" laneDensity="0.44" occupancy="0.22" waitingTime="0.00" timeLoss="16.86" speed="7.58" speedRelative="0.91" departed="0" arrived="0" entered="12" left="12" laneChangedFrom="0" laneChangedTo="0" flow="12.00"/>
        <edge id="23276766#3" sampledSeconds="113.06" traveltime="15.55" overlapTraveltime="16.20" density="0.26" overlapDensity="0.27" laneDensity="0.26" occupancy="0.13" waitingTime="0.00" timeLoss="9.40" speed="7.57" speedRelative="0.91" departed="0" arrived="1" entered="7" left="6" laneChangedFrom="0" laneChangedTo="0" flow="7.00"/>
        <edge id="23295986#0" sampledSeconds="320.85" traveltime="9.17" overlapTraveltime="10.18" density="1.91" overlapDensity="2.11" laneDensity="0.64" occupancy="0.33" waitingTime="119.00" timeLoss="210.77" speed="4.63" speedRelative="0.33" departed="3" arrived="1" entered="29" left="31" laneChangedFrom="8" laneChangedTo="8" flow="31.64"/>
        <edge id="23296952#0" sampledSeconds="1114.50" traveltime="21.65" overlapTraveltime="22.30" density="1.82" overlapDensity="1.88" laneDensity="1.82" occupancy="0.91" waitingTime="0.00" timeLoss="89.59" speed="7.62" speedRelative="0.91" departed="1" arrived="0" entered="49" left="50" laneChangedFrom="0" laneChangedTo="0" flow="49.97"/>
        <edge id="237638594#0" sampledSeconds="94.36" traveltime="11.74" overlapTraveltime="12.45" density="0.27" overlapDensity="0.28" laneDensity="0.27" occupancy="0.14" waitingTime="0.00" timeLoss="7.10" speed="7.82" speedRelative="0.94" departed="8" arrived="0" entered="0" left="8" laneChangedFrom="0" laneChangedTo="0" flow="7.56"/>
        <edge id="237638594#1" sampledSeconds="262.35" traveltime="25.66" overlapTraveltime="26.30" density="0.35" overlapDensity="0.36" laneDensity="0.35" occupancy="0.18" waitingTime="0.00" timeLoss="22.34" speed="7.89" speedRelative="0.95" departed="1" arrived="0" entered="9" left="10" laneChangedFrom="0" laneChangedTo="0" flow="9.97"/>
        <edge id="237638594#2" sampledSeconds="248.68" traveltime="18.23" overlapTraveltime="19.18" density="0.47" overlapDensity="0.50" laneDensity="0.47" occupancy="0.24" waitingTime="2.00" timeLoss="31.00" speed="7.50" speedRelative="0.90" departed="1" arrived="0" entered="12" left="13" laneChangedFrom="0" laneChangedTo="0" flow="12.96"/>
        <edge id="23837909#0" sampledSeconds="277.97" traveltime="19.54" overlapTraveltime="19.91" density="0.30" overlapDensity="0.30" laneDensity="0.10" occupancy="0.05" waitingTime="0.00" timeLoss="17.50" speed="13.07" speedRelative="0.94" departed="0" arrived="14" entered="14" left="0" laneChangedFrom="0" laneChangedTo="0" flow="14.00"/>
        <edge id="23837911#0" sampledSeconds="79.14" traveltime="1.39" overlapTraveltime="1.81" density="1.14" overlapDensity="1.48" laneDensity="0.38" occupancy="0.18" waitingTime="0.00" timeLoss="16.33" speed="11.01" speedRelative="0.79" departed="0" arrived="4" entered="44" left="40" laneChangedFrom="0" laneChangedTo="0" flow="44.00"/>
        <edge id="23837911#1" sampledSeconds="792.02" traveltime="16.46" overlapTraveltime="16.88" density="0.99" overlapDensity="1.01" laneDensity="0.33" occupancy="0.17" waitingTime="0.00" timeLoss="41.41" speed="13.15" speedRelative="0.95" departed="1" arrived="1" entered="46" left="45" laneChangedFrom="22" laneChangedTo="22" flow="46.94"/>
        <edge id="23837911#4" sampledSeconds="624.67" traveltime="12.80" overlapTraveltime="13.73" density="1.57" overlapDensity="1.68" laneDensity="0.52" occupancy="0.27" waitingTime="148.00" timeLoss="266.45" speed="7.90" speedRelative="0.57" departed="3" arrived="5" entered="43" left="40" laneChangedFrom="19" laneChangedTo="19" flow="45.59"/>
        <edge id="292179033#0" sampledSeconds="692.43" traveltime="9.74" overlapTraveltime="10.75" density="2.62" overlapDensity="2.89" laneDensity="0.87" occupancy="0.45" waitingTime="151.00" timeLoss="360.80" speed="6.66" speedRelative="0.48" departed="3" arrived="5" entered="63" left="59" laneChangedFrom="59" laneChangedTo="59" flow="64.63"/>
        <edge id="292179033#4" sampledSeconds="518.26" traveltime="6.89" overlapTraveltime="7.33" density="1.63" overlapDensity="1.73" laneDensity="0.54" occupancy="0.27" waitingTime="0.00" timeLoss="65.52" speed="12.01" speedRelative="0.86" departed="5" arrived="3" entered="66" left="68" laneChangedFrom="32" laneChangedTo="32" flow="70.69"/>
        <edge id="292179033#6" sampledSeconds="667.15" traveltime="8.96" overlapTraveltime="9.35" density="1.54" overlapDensity="1.61" laneDensity="0.51" occupancy="0.26" waitingTime="0.00" timeLoss="51.62" speed="12.87" speedRelative="0.93" departed="2" arrived="1" entered="70" left="70" laneChangedFrom="50" laneChangedTo="50" flow="71.42"/>
        <edge id="292179033#7" sampledSeconds="221.92" traveltime="2.40" overlapTraveltime="2.90" density="1.82" overlapDensity="2.20" laneDensity="0.61" occupancy="0.31" waitingTime="0.00" timeLoss="29.88" speed="11.38" speedRelative="0.82" departed="3" arrived="1" entered="74" left="76" laneChangedFrom="12" laneChangedTo="12" flow="76.45"/>
        <edge id="292179033#9" sampledSeconds="450.46" traveltime="6.56" overlapTraveltime="6.94" density="1.39" overlapDensity="1.47" laneDensity="0.46" occupancy="0.23" waitingTime="0.00" timeLoss="29.26" speed="12.99" speedRelative="0.94" departed="1" arrived="3" entered="64" left="62" laneChangedFrom="1" laneChangedTo="1" flow="64.94"/>
        <edge id="30814311#0" sampledSeconds="245.32" traveltime="27.42" overlapTraveltime="28.10" density="0.33" overlapDensity="0.33" laneDensity="0.33" occupancy="0.16" waitingTime="0.00" timeLoss="23.55" speed="7.47" speedRelative="0.90" departed="1" arrived="1" entered="8" left="7" laneChangedFrom="0" laneChangedTo="0" flow="8.77"/>
        <edge id="30814438#0" sampledSeconds="24.24" traveltime="11.20" overlapTraveltime="12.12" density="0.08" overlapDensity="0.09" laneDensity="0.08" occupancy="0.04" waitingTime="0.00" timeLoss="2.67" speed="6.81" speedRelative="0.82" departed="0" arrived="0" entered="2" left="2" laneChangedFrom="0" laneChangedTo="0" flow="2.00"/>
        <edge id="30814438#2" sampledSeconds="19.03" traveltime="2.19" overlapTraveltime="3.03" density="0.33" overlapDensity="0.46" laneDensity="0.33" occupancy="0.17" waitingTime="0.00" timeLoss="5.21" speed="5.43" speedRelative="0.65" departed="2" arrived="2" entered="5" left="5" laneChangedFrom="0" laneChangedTo="0" flow="6.11"/>