<?xml version="1.0" encoding="UTF-8"?>

<!-- generated on 2026-03-26T12:26:23.736143+01:00 by Eclipse SUMO sumo v1_26_0+0818-8fa21e3b56a
<sumoConfiguration xmlns:xsi="http://www.w3.org/2001/XMLSchema-instance" xsi:noNamespaceSchemaLocation="http://sumo.dlr.de/xsd/sumoConfiguration.xsd">

    <input>
        <net-file value="/Users/raffaele/PycharmProjects/TrafficAgenticAi/Simulazione Sumo/Prova_VialeAldini/osm.net.xml.gz"/>
        <route-files value="/Users/raffaele/PycharmProjects/TrafficAgenticAi/Simulazione Sumo/Prova_VialeAldini/heavy.rou.xml"/>
        <additional-files value="/Users/raffaele/PycharmProjects/TrafficAgenticAi/Simulazione Sumo/Prova_VialeAldini/rilevazioni/output.add.xml"/>
    </input>

    <output>
        <tripinfo-output value="/Users/raffaele/PycharmProjects/TrafficAgenticAi/Simulazione Sumo/Prova_VialeAldini/output/tripinfos.xml"/>
        <statistic-output value="/Users/raffaele/PycharmProjects/TrafficAgenticAi/Simulazione Sumo/Prova_VialeAldini/output/stats.xml"/>
    </output>

    <processing>
        <ignore-route-errors value="true"/>
        <tls.actuated.jam-threshold value="30"/>
    </processing>

    <routing>
        <device.rerouting.adaptation-steps value="18"/>
        <device.rerouting.adaptation-interval value="10"/>
    </routing>

    <report>
        <verbose value="true"/>
        <duration-log.statistics value="true"/>
        <no-step-log value="true"/>
    </report>

    <traci_server>
        <remote-port value="55432"/>
    </traci_server>

    <gui_only>
        <gui-settings-file value="/Users/raffaele/PycharmProjects/TrafficAgenticAi/Simulazione Sumo/Prova_VialeAldini/osm.view.xml"/>
    </gui_only>

</sumoConfiguration>
-->

<meandata xmlns:xsi="http://www.w3.org/2001/XMLSchema-instance" xsi:noNamespaceSchemaLocation="http://sumo.dlr.de/xsd/meandata_file.xsd">
    <interval begin="0.00" end="290.00" id="wizard_example">
        <edge id="-1023996215#2" sampledSeconds="258.51" traveltime="19.52" overlapTraveltime="20.20" density="6.18" overlapDensity="6.37" laneDensity="6.18" occupancy="3.10" waitingTime="0.00" timeLoss="27.14" speed="7.18" speedRelative="0.86" departed="4" arrived="2" entered="9" left="11" laneChangedFrom="0" laneChangedTo="0" flow="159.57"/>
        <edge id="-103538896" sampledSeconds="0.00" departed="0" arrived="0" entered="0" left="0" laneChangedFrom="0" laneChangedTo="0"/>
        <edge id="-1103834241" sampledSeconds="112.34" traveltime="7.95" overlapTraveltime="9.46" density="9.25" overlapDensity="11.02" laneDensity="9.25" occupancy="4.89" waitingTime="25.00" timeLoss="44.85" speed="4.24" speedRelative="0.51" departed="1" arrived="1" entered="11" left="11" laneChangedFrom="0" laneChangedTo="0" flow="147.16"/>
        <edge id="-170687890" sampledSeconds="196.32" traveltime="28.88" overlapTraveltime="30.00" density="4.34" overlapDensity="4.46" laneDensity="4.34" occupancy="2.20" waitingTime="43.00" timeLoss="75.29" speed="5.23" speedRelative="0.63" departed="7" arrived="0" entered="0" left="5" laneChangedFrom="0" laneChangedTo="0" flow="82.12"/>
        <edge id="-171520872#1" sampledSeconds="207.72" traveltime="103.64" overlapTraveltime="105.72" density="2.89" overlapDensity="2.89" laneDensity="2.89" occupancy="1.43" waitingTime="0.00" timeLoss="44.91" speed="2.39" speedRelative="0.86" departed="0" arrived="2" entered="2" left="0" laneChangedFrom="0" laneChangedTo="0" flow="24.83"/>
        <edge id="-23185949" sampledSeconds="38.53" traveltime="2.22" overlapTraveltime="5.02" density="133.33" overlapDensity="133.33" laneDensity="133.33" occupancy="9.70" waitingTime="29.55" timeLoss="33.67" speed="1.04" speedRelative="0.12" departed="0" arrived="1" entered="9" left="7" laneChangedFrom="0" laneChangedTo="0" flow="43.24"/>
        <edge id="-23276766#0" sampledSeconds="29.45" traveltime="2.63" overlapTraveltime="3.27" density="3.99" overlapDensity="4.97" laneDensity="3.99" occupancy="1.99" waitingTime="0.00" timeLoss="2.13" speed="7.78" speedRelative="0.93" departed="0" arrived="1" entered="9" left="8" laneChangedFrom="0" laneChangedTo="0" flow="111.72"/>
        <edge id="-23276766#2" sampledSeconds="255.13" traveltime="17.62" overlapTraveltime="18.32" density="6.46" overlapDensity="6.70" laneDensity="6.46" occupancy="3.20" waitingTime="0.00" timeLoss="25.32" speed="7.44" speedRelative="0.89" departed="1" arrived="1" entered="13" left="12" laneChangedFrom="0" laneChangedTo="0" flow="173.28"/>
        <edge id="-23296952#2" sampledSeconds="1224.24" traveltime="42.51" overlapTraveltime="43.74" density="25.05" overlapDensity="25.54" laneDensity="25.05" occupancy="12.56" waitingTime="382.00" timeLoss="647.99" speed="3.89" speedRelative="0.47" departed="2" arrived="2" entered="28" left="19" laneChangedFrom="0" laneChangedTo="0" flow="350.69"/>
        <edge id="-237638594#0" sampledSeconds="0.00" departed="0" arrived="0" entered="0" left="0" laneChangedFrom="0" laneChangedTo="0"/>
        <edge id="-237638594#1" sampledSeconds="181.41" traveltime="27.03" overlapTraveltime="27.66" density="3.08" overlapDensity="3.15" laneDensity="3.08" occupancy="1.55" waitingTime="0.00" timeLoss="20.16" speed="7.37" speedRelative="0.88" departed="5" arrived="1" entered="2" left="5" laneChangedFrom="0" laneChangedTo="0" flow="81.58"/>
        <edge id="-237638594#3" sampledSeconds="308.51" traveltime="19.62" overlapTraveltime="20.88" density="7.21" overlapDensity="7.65" laneDensity="7.21" occupancy="3.67" waitingTime="6.00" timeLoss="48.51" speed="6.90" speedRelative="0.83" departed="5" arrived="2" entered="10" left="13" laneChangedFrom="0" laneChangedTo="0" flow="183.93"/>
        <edge id="-30814311#1" sampledSeconds="184.01" traveltime="25.69" overlapTraveltime="26.48" density="3.18" overlapDensity="3.28" laneDensity="3.18" occupancy="1.60" waitingTime="0.00" timeLoss="20.79" speed="7.49" speedRelative="0.90" departed="2" arrived="0" entered="5" left="7" laneChangedFrom="0" laneChangedTo="0" flow="86.24"/>
        <edge id="-30824033#1" sampledSeconds="155.38" traveltime="18.27" overlapTraveltime="19.24" density="3.99" overlapDensity="4.17" laneDensity="3.99" occupancy="2.01" waitingTime="0.00" timeLoss="20.45" speed="6.94" speedRelative="0.83" departed="3" arrived="2" entered="6" left="5" laneChangedFrom="0" laneChangedTo="0" flow="101.12"/>
        <edge id="-30824033#5" sampledSeconds="408.87" traveltime="22.83" overlapTraveltime="23.95" density="8.38" overlapDensity="8.75" laneDensity="8.38" occupancy="4.24" waitingTime="3.00" timeLoss="61.16" speed="6.94" speedRelative="0.83" departed="7" arrived="2" entered="13" left="13" laneChangedFrom="0" laneChangedTo="0" flow="212.94"/>
        <edge id="-33523355#1" sampledSeconds="108.32" traveltime="5.21" overlapTraveltime="6.11" density="9.64" overlapDensity="11.33" laneDensity="9.64" occupancy="4.89" waitingTime="3.00" timeLoss="27.72" speed="6.22" speedRelative="0.75" departed="2" arrived="1" entered="16" left="17" laneChangedFrom="0" laneChangedTo="0" flow="219.61"/>
        <edge id="-33523355#2" sampledSeconds="148.35" traveltime="9.30" overlapTraveltime="10.01" density="8.41" overlapDensity="8.96" laneDensity="8.41" occupancy="4.17" waitingTime="17.00" timeLoss="35.93" speed="6.21" speedRelative="0.75" departed="1" arrived="0" entered="15" left="13" laneChangedFrom="0" laneChangedTo="0" flow="186.00"/>
        <edge id="-33523355#3" sampledSeconds="103.89" traveltime="5.77" overlapTraveltime="7.43" density="7.32" overlapDensity="9.36" laneDensity="7.32" occupancy="4.07" waitingTime="12.00" timeLoss="28.38" speed="5.82" speedRelative="0.70" departed="2" arrived="2" entered="13" left="12" laneChangedFrom="0" laneChangedTo="0" flow="174.78"/>
        <edge id="-33523355#4" sampledSeconds="135.55" traveltime="10.60" overlapTraveltime="11.36" density="5.70" overlapDensity="6.11" laneDensity="5.70" occupancy="2.85" waitingTime="0.00" timeLoss="14.74" speed="7.18" speedRelative="0.86" departed="1" arrived="0" entered="11" left="12" laneChangedFrom="0" laneChangedTo="0" flow="148.14"/>
        <edge id="-33523578#2" sampledSeconds="34.82" traveltime="6.80" overlapTraveltime="7.44" density="2.55" overlapDensity="2.82" laneDensity="2.55" occupancy="1.28" waitingTime="0.00" timeLoss="8.37" speed="6.40" speedRelative="0.77" departed="3" arrived="0" entered="2" left="5" laneChangedFrom="0" laneChangedTo="0" flow="57.61"/>
        <edge id="-37711918" sampledSeconds="18.32" traveltime="6.34" overlapTraveltime="7.04" density="1.66" overlapDensity="1.88" laneDensity="1.66" occupancy="0.89" waitingTime="0.00" timeLoss="6.31" speed="5.47" speedRelative="0.66" departed="3" arrived="0" entered="0" left="3" laneChangedFrom="0" laneChangedTo="0" flow="31.58"/>
        <edge id="-379112060#2" sampledSeconds="157.41" traveltime="9.95" overlapTraveltime="11.17" density="67.33" overlapDensity="75.28" laneDensity="67.33" occupancy="33.99" waitingTime="109.00" timeLoss="132.41" speed="1.09" speedRelative="0.13" departed="1" arrived="0" entered="14" left="14" laneChangedFrom="0" laneChangedTo="0" flow="175.70"/>
        <edge id="-38592259" sampledSeconds="9.95" traveltime="10.82" overlapTraveltime="12.50" density="1.39" overlapDensity="1.71" laneDensity="1.39" occupancy="0.79" waitingTime="4.00" timeLoss="7.76" speed="2.00" speedRelative="0.24" departed="1" arrived="0" entered="0" left="1" laneChangedFrom="0" laneChangedTo="0" flow="9.25"/>
        <edge id="-455829556#2" sampledSeconds="32.05" traveltime="15.53" overlapTraveltime="16.18" density="0.91" overlapDensity="0.94" laneDensity="0.91" occupancy="0.45" waitingTime="0.00" timeLoss="2.44" speed="7.61" speedRelative="0.91" departed="0" arrived="2" entered="2" left="0" laneChangedFrom="0" laneChangedTo="0" flow="24.83"/>
        <edge id="-65292475" sampledSeconds="0.00" departed="0" arrived="0" entered="0" left="0" laneChangedFrom="0" laneChangedTo="0"/>
        <edge id="-685037225#1" sampledSeconds="22.77" traveltime="11.33" overlapTraveltime="12.20" density="1.02" overlapDensity="1.11" laneDensity="1.02" occupancy="0.53" waitingTime="0.00" timeLoss="5.25" speed="6.23" speedRelative="0.75" departed="2" arrived="0" entered="0" left="2" laneChangedFrom="0" laneChangedTo="0" flow="23.04"/>
        <edge id="-808547875" sampledSeconds="215.00" overlapTraveltime="100000.00" density="266.67" overlapDensity="266.67" laneDensity="133.33" occupancy="37.07" waitingTime="215.00" timeLoss="215.00" speed="0.00" speedRelative="0.00" departed="1" arrived="0" entered="0" left="0" laneChangedFrom="0" laneChangedTo="0" flow="0.00"/>
        <edge id="-945850922" sampledSeconds="153.82" traveltime="16.69" overlapTraveltime="17.49" density="4.19" overlapDensity="4.37" laneDensity="4.19" occupancy="2.12" waitingTime="0.00" timeLoss="19.28" speed="7.22" speedRelative="0.87" departed="4" arrived="0" entered="5" left="8" laneChangedFrom="0" laneChangedTo="0" flow="109.56"/>
        <edge id="1023996215#0" sampledSeconds="428.88" traveltime="22.13" overlapTraveltime="23.00" density="10.07" overlapDensity="10.41" laneDensity="10.07" occupancy="5.06" waitingTime="17.00" timeLoss="86.64" speed="6.39" speedRelative="0.77" departed="4" arrived="3" entered="15" left="14" laneChangedFrom="0" laneChangedTo="0" flow="232.61"/>
        <edge id="103538896" sampledSeconds="93.39" traveltime="15.61" overlapTraveltime="16.26" density="2.70" overlapDensity="2.81" laneDensity="2.70" occupancy="1.38" waitingTime="0.00" timeLoss="16.81" speed="7.35" speedRelative="0.88" departed="6" arrived="0" entered="0" left="6" laneChangedFrom="0" laneChangedTo="0" flow="71.17"/>
        <edge id="1067121593#0" sampledSeconds="543.41" traveltime="24.69" overlapTraveltime="26.16" density="12.02" overlapDensity="12.70" laneDensity="12.02" occupancy="6.11" waitingTime="67.00" timeLoss="169.31" speed="5.83" speedRelative="0.70" departed="3" arrived="2" entered="18" left="17" laneChangedFrom="0" laneChangedTo="0" flow="258.71"/>
        <edge id="1103834241" sampledSeconds="114.55" traveltime="5.93" overlapTraveltime="6.63" density="9.42" overlapDensity="10.51" laneDensity="9.42" occupancy="4.66" waitingTime="0.00" timeLoss="22.80" speed="6.42" speedRelative="0.77" departed="5" arrived="3" entered="13" left="15" laneChangedFrom="0" laneChangedTo="0" flow="215.02"/>
        <edge id="1221422471" sampledSeconds="0.00" departed="0" arrived="0" entered="0" left="0" laneChangedFrom="0" laneChangedTo="0"/>
        <edge id="135982476#0" sampledSeconds="80.85" traveltime="20.28" overlapTraveltime="20.67" density="1.22" overlapDensity="1.25" laneDensity="0.41" occupancy="0.21" waitingTime="0.00" timeLoss="14.13" speed="11.04" speedRelative="0.80" departed="4" arrived="0" entered="0" left="4" laneChangedFrom="0" laneChangedTo="0" flow="48.52"/>
        <edge id="135982476#3" sampledSeconds="111.67" traveltime="8.86" overlapTraveltime="9.25" density="3.96" overlapDensity="4.13" laneDensity="1.32" occupancy="0.66" waitingTime="0.00" timeLoss="23.49" speed="10.63" speedRelative="0.76" departed="7" arrived="2" entered="7" left="10" laneChangedFrom="4" laneChangedTo="4" flow="149.92"/>
        <edge id="1462715258" sampledSeconds="0.00" departed="0" arrived="0" entered="0" left="0" laneChangedFrom="0" laneChangedTo="0"/>
        <edge id="1467263794#0" sampledSeconds="270.98" traveltime="9.38" overlapTraveltime="9.77" density="7.87" overlapDensity="8.18" laneDensity="2.62" occupancy="1.29" waitingTime="0.00" timeLoss="33.98" speed="12.21" speedRelative="0.88" departed="0" arrived="0" entered="28" left="27" laneChangedFrom="16" laneChangedTo="16" flow="344.85"/>
        <edge id="1467263796#0" sampledSeconds="88.87" traveltime="17.47" overlapTraveltime="17.83" density="1.27" overlapDensity="1.30" laneDensity="0.42" occupancy="0.21" waitingTime="0.00" timeLoss="6.45" speed="13.55" speedRelative="0.98" departed="0" arrived="5" entered="5" left="0" laneChangedFrom="0" laneChangedTo="0" flow="62.07"/>
        <edge id="1467263797#0" sampledSeconds="2250.75" traveltime="55.47" overlapTraveltime="56.98" density="81.45" overlapDensity="83.11" laneDensity="27.15" occupancy="13.44" waitingTime="1081.00" timeLoss="1969.15" speed="1.73" speedRelative="0.12" departed="2" arrived="2" entered="43" left="33" laneChangedFrom="5" laneChangedTo="5" flow="493.65"/>
        <edge id="1467263798#0" sampledSeconds="61.31" traveltime="7.50" overlapTraveltime="8.14" density="3.89" overlapDensity="4.25" laneDensity="3.89" occupancy="2.00" waitingTime="0.00" timeLoss="12.66" speed="6.73" speedRelative="0.81" departed="5" arrived="1" entered="3" left="7" laneChangedFrom="0" laneChangedTo="0" flow="92.95"/>
        <edge id="1472800673#0" sampledSeconds="40.89" traveltime="19.87" overlapTraveltime="20.97" density="0.67" overlapDensity="0.71" laneDensity="0.22" occupancy="0.12" waitingTime="0.00" timeLoss="13.09" speed="9.70" speedRelative="0.70" departed="2" arrived="0" entered="0" left="2" laneChangedFrom="0" laneChangedTo="0" flow="24.19"/>
        <edge id="1472850568#0" sampledSeconds="384.49" traveltime="18.13" overlapTraveltime="19.48" density="18.67" overlapDensity="19.91" laneDensity="6.22" occupancy="3.19" waitingTime="189.00" timeLoss="279.21" speed="3.67" speedRelative="0.26" departed="2" arrived="1" entered="19" left="18" laneChangedFrom="15" laneChangedTo="15" flow="246.75"/>
        <edge id="1472850569#0" sampledSeconds="261.44" traveltime="5.42" overlapTraveltime="7.32" density="13.07" overlapDensity="17.67" laneDensity="4.36" occupancy="2.35" waitingTime="42.00" timeLoss="113.76" speed="7.65" speedRelative="0.55" departed="3" arrived="2" entered="33" left="34" laneChangedFrom="21" laneChangedTo="21" flow="443.17"/>
        <edge id="1472850569#1" sampledSeconds="764.97" traveltime="24.30" overlapTraveltime="25.24" density="9.97" overlapDensity="10.34" laneDensity="3.32" occupancy="1.68" waitingTime="72.00" timeLoss="188.87" speed="10.31" speedRelative="0.74" departed="1" arrived="2" entered="32" left="26" laneChangedFrom="42" laneChangedTo="42" flow="376.81"/>
        <edge id="170687890" sampledSeconds="19.67" traveltime="19.04" overlapTraveltime="19.71" density="0.45" overlapDensity="0.46" laneDensity="0.45" occupancy="0.22" waitingTime="0.00" timeLoss="1.75" speed="7.71" speedRelative="0.93" departed="0" arrived="1" entered="1" left="0" laneChangedFrom="0" laneChangedTo="0" flow="12.41"/>
        <edge id="171520872#0" sampledSeconds="0.00" departed="0" arrived="0" entered="0" left="0" laneChangedFrom="0" laneChangedTo="0"/>
        <edge id="210196700#0" sampledSeconds="0.00" departed="0" arrived="0" entered="0" left="0" laneChangedFrom="0" laneChangedTo="0"/>
        <edge id="23185949" sampledSeconds="50.15" traveltime="0.68" overlapTraveltime="1.57" density="133.33" overlapDensity="133.33" laneDensity="133.33" occupancy="13.42" waitingTime="17.76" timeLoss="30.28" speed="3.31" speedRelative="0.40" departed="3" arrived="0" entered="29" left="32" laneChangedFrom="0" laneChangedTo="0" flow="140.64"/>
        <edge id="232512837#0" sampledSeconds="0.00" departed="0" arrived="0" entered="0" left="0" laneChangedFrom="0" laneChangedTo="0"/>
        <edge id="23271710" sampledSeconds="722.41" traveltime="17.49" overlapTraveltime="18.31" density="19.45" overlapDensity="20.29" laneDensity="19.45" occupancy="9.59" waitingTime="0.00" timeLoss="110.87" speed="6.98" speedRelative="0.84" departed="3" arrived="2" entered="39" left="35" laneChangedFrom="0" laneChangedTo="0" flow="491.37"/>
        <edge id="23271717" sampledSeconds="104.85" traveltime="2.74" overlapTraveltime="3.74" density="16.08" overlapDensity="21.87" laneDensity="16.08" occupancy="8.41" waitingTime="0.00" timeLoss="24.73" speed="5.76" speedRelative="0.69" departed="1" arrived="0" entered="28" left="28" laneChangedFrom="0" laneChangedTo="0" flow="349.24"/>
        <edge id="23271728#0" sampledSeconds="24.10" traveltime="7.87" overlapTraveltime="8.57" density="1.53" overlapDensity="1.67" laneDensity="1.53" occupancy="0.77" waitingTime="0.00" timeLoss="5.70" speed="6.38" speedRelative="0.77" departed="2" arrived="0" entered="1" left="3" laneChangedFrom="0" laneChangedTo="0" flow="34.69"/>
        <edge id="23271728#1" sampledSeconds="303.57" traveltime="43.86" overlapTraveltime="44.86" density="3.35" overlapDensity="3.41" laneDensity="3.35" occupancy="1.69" waitingTime="10.00" timeLoss="47.46" speed="6.96" speedRelative="0.84" departed="6" arrived="0" entered="1" left="5" laneChangedFrom="0" laneChangedTo="0" flow="84.37"/>
        <edge id="23271732#0" sampledSeconds="233.71" traveltime="46.58" overlapTraveltime="47.83" density="2.75" overlapDensity="2.80" laneDensity="2.75" occupancy="1.39" waitingTime="28.00" timeLoss="56.49" speed="6.12" speedRelative="0.73" departed="3" arrived="0" entered="2" left="3" laneChangedFrom="0" laneChangedTo="0" flow="61.06"/>
        <edge id="23271762#1" sampledSeconds="126.04" traveltime="3.45" overlapTraveltime="4.14" density="16.22" overlapDensity="19.60" laneDensity="16.22" occupancy="8.28" waitingTime="0.00" timeLoss="26.29" speed="6.56" speedRelative="0.79" departed="9" arrived="0" entered="24" left="32" laneChangedFrom="0" laneChangedTo="0" flow="374.88"/>
        <edge id="23271762#2" sampledSeconds="276.20" traveltime="9.09" overlapTraveltime="9.81" density="13.48" overlapDensity="14.48" laneDensity="13.48" occupancy="6.74" waitingTime="0.00" timeLoss="39.31" speed="7.21" speedRelative="0.87" departed="2" arrived="2" entered="28" left="25" laneChangedFrom="0" laneChangedTo="0" flow="351.15"/>
        <edge id="23271762#3" sampledSeconds="203.48" traveltime="10.95" overlapTraveltime="12.12" density="11.12" overlapDensity="12.26" laneDensity="11.12" occupancy="5.71" waitingTime="24.00" timeLoss="75.64" speed="5.14" speedRelative="0.62" departed="3" arrived="0" entered="16" left="16" laneChangedFrom="0" laneChangedTo="0" flow="209.26"/>
        <edge id="23271799#0" sampledSeconds="85.95" traveltime="28.64" overlapTraveltime="29.33" density="1.34" overlapDensity="1.37" laneDensity="1.34" occupancy="0.68" waitingTime="0.00" timeLoss="11.30" speed="7.54" speedRelative="0.90" departed="3" arrived="0" entered="0" left="3" laneChangedFrom="0" laneChangedTo="0" flow="36.36"/>
        <edge id="23271799#1" sampledSeconds="34.64" traveltime="10.55" overlapTraveltime="11.85" density="1.74" overlapDensity="1.95" laneDensity="1.74" occupancy="0.91" waitingTime="3.00" timeLoss="12.11" speed="5.58" speedRelative="0.67" departed="1" arrived="0" entered="2" left="3" laneChangedFrom="0" laneChangedTo="0" flow="36.21"/>
        <edge id="23276172#0" sampledSeconds="270.71" traveltime="18.60" overlapTraveltime="19.81" density="11.29" overlapDensity="12.02" laneDensity="11.29" occupancy="5.77" waitingTime="82.00" timeLoss="132.41" speed="4.17" speedRelative="0.50" departed="5" arrived="2" entered="9" left="12" laneChangedFrom="0" laneChangedTo="0" flow="169.72"/>
        <edge id="23276195#0" sampledSeconds="786.50" traveltime="25.99" overlapTraveltime="26.89" density="21.41" overlapDensity="22.08" laneDensity="21.41" occupancy="10.74" waitingTime="178.00" timeLoss="337.85" speed="4.75" speedRelative="0.57" departed="1" arrived="0" entered="30" left="27" laneChangedFrom="0" laneChangedTo="0" flow="364.22"/>
        <edge id="23276536" sampledSeconds="85.56" traveltime="16.72" overlapTraveltime="17.38" density="2.27" overlapDensity="2.36" laneDensity="2.27" occupancy="1.14" waitingTime="0.00" timeLoss="10.01" speed="7.48" speedRelative="0.90" departed="2" arrived="0" entered="3" left="5" laneChangedFrom="0" laneChangedTo="0" flow="61.06"/>
        <edge id="23276545" sampledSeconds="505.59" traveltime="73.97" overlapTraveltime="76.06" density="13.53" overlapDensity="13.71" laneDensity="13.53" occupancy="6.74" waitingTime="88.00" timeLoss="193.36" speed="1.74" speedRelative="0.62" departed="2" arrived="0" entered="5" left="5" laneChangedFrom="0" laneChangedTo="0" flow="83.68"/>
        <edge id="23276548" sampledSeconds="81.58" traveltime="52.57" overlapTraveltime="54.98" density="2.57" overlapDensity="2.58" laneDensity="2.57" occupancy="1.25" waitingTime="0.00" timeLoss="19.72" speed="2.07" speedRelative="0.74" departed="1" arrived="1" entered="2" left="0" laneChangedFrom="0" laneChangedTo="0" flow="19.12"/>
        <edge id="23276555" sampledSeconds="287.88" traveltime="49.96" overlapTraveltime="51.70" density="12.17" overlapDensity="12.52" laneDensity="12.17" occupancy="6.08" waitingTime="57.00" timeLoss="119.20" speed="1.63" speedRelative="0.59" departed="2" arrived="0" entered="4" left="5" laneChangedFrom="0" laneChangedTo="0" flow="69.57"/>
        <edge id="23276726#0" sampledSeconds="0.00" departed="0" arrived="0" entered="0" left="0" laneChangedFrom="0" laneChangedTo="0"/>
        <edge id="23276766#0" sampledSeconds="186.52" traveltime="4.78" overlapTraveltime="5.78" density="26.45" overlapDensity="31.67" laneDensity="26.45" occupancy="13.70" waitingTime="34.00" timeLoss="88.17" speed="4.38" speedRelative="0.53" departed="0" arrived="0" entered="33" left="31" laneChangedFrom="0" laneChangedTo="0" flow="404.47"/>
        <edge id="23276766#1" sampledSeconds="177.07" traveltime="20.71" overlapTraveltime="22.20" density="4.37" overlapDensity="4.68" laneDensity="4.37" occupancy="2.24" waitingTime="12.00" timeLoss="39.19" speed="6.10" speedRelative="0.73" departed="5" arrived="0" entered="4" left="8" laneChangedFrom="0" laneChangedTo="0" flow="99.02"/>
        <edge id="23276766#3" sampledSeconds="84.42" traveltime="16.60" overlapTraveltime="17.26" density="2.39" overlapDensity="2.48" laneDensity="2.39" occupancy="1.20" waitingTime="0.00" timeLoss="10.75" speed="7.10" speedRelative="0.85" departed="2" arrived="1" entered="3" left="4" laneChangedFrom="0" laneChangedTo="0" flow="60.99"/>
        <edge id="23295986#0" sampledSeconds="187.56" traveltime="7.54" overlapTraveltime="8.27" density="13.96" overlapDensity="15.34" laneDensity="4.65" occupancy="2.38" waitingTime="57.00" timeLoss="107.91" speed="5.70" speedRelative="0.41" departed="3" arrived="1" entered="20" left="22" laneChangedFrom="11" laneChangedTo="11" flow="281.01"/>
        <edge id="23296952#0" sampledSeconds="848.26" traveltime="22.83" overlapTraveltime="23.58" density="17.16" overlapDensity="17.73" laneDensity="17.16" occupancy="8.59" waitingTime="0.00" timeLoss="114.13" speed="7.21" speedRelative="0.87" departed="1" arrived="1" entered="35" left="35" laneChangedFrom="0" laneChangedTo="0" flow="446.51"/>
        <edge id="237638594#0" sampledSeconds="0.00" departed="0" arrived="0" entered="0" left="0" laneChangedFrom="0" laneChangedTo="0"/>
        <edge id="237638594#1" sampledSeconds="102.92" traveltime="25.44" overlapTraveltime="26.07" density="1.71" overlapDensity="1.75" laneDensity="1.71" occupancy="0.86" waitingTime="0.00" timeLoss="9.98" speed="7.96" speedRelative="0.96" departed="2" arrived="2" entered="2" left="2" laneChangedFrom="0" laneChangedTo="0" flow="49.03"/>
        <edge id="237638594#2" sampledSeconds="413.61" traveltime="20.87" overlapTraveltime="21.95" density="9.79" overlapDensity="10.27" laneDensity="9.79" occupancy="4.93" waitingTime="10.00" timeLoss="78.89" speed="6.55" speedRelative="0.79" departed="3" arrived="2" entered="16" left="17" laneChangedFrom="0" laneChangedTo="0" flow="234.49"/>
        <edge id="23837909#0" sampledSeconds="39.91" traveltime="19.71" overlapTraveltime="20.09" density="0.53" overlapDensity="0.54" laneDensity="0.18" occupancy="0.09" waitingTime="0.00" timeLoss="1.80" speed="12.96" speedRelative="0.93" departed="0" arrived="2" entered="2" left="0" laneChangedFrom="0" laneChangedTo="0" flow="24.83"/>
        <edge id="23837911#0" sampledSeconds="16.25" traveltime="2.02" overlapTraveltime="2.51" density="2.96" overlapDensity="3.76" laneDensity="0.99" occupancy="0.51" waitingTime="0.00" timeLoss="6.87" speed="7.94" speedRelative="0.57" departed="2" arrived="0" entered="5" left="7" laneChangedFrom="0" laneChangedTo="0" flow="78.39"/>
        <edge id="23837911#1" sampledSeconds="259.61" traveltime="16.92" overlapTraveltime="17.33" density="4.03" overlapDensity="4.13" laneDensity="1.34" occupancy="0.67" waitingTime="0.00" timeLoss="17.64" speed="12.81" speedRelative="0.92" departed="1" arrived="1" entered="14" left="14" laneChangedFrom="8" laneChangedTo="8" flow="185.92"/>
        <edge id="23837911#4" sampledSeconds="400.49" traveltime="22.58" overlapTraveltime="23.69" density="12.72" overlapDensity="13.35" laneDensity="4.24" occupancy="2.16" waitingTime="198.00" timeLoss="268.19" speed="4.58" speedRelative="0.33" departed="2" arrived="0" entered="15" left="17" laneChangedFrom="24" laneChangedTo="24" flow="209.81"/>
        <edge id="292179033#0" sampledSeconds="529.98" traveltime="9.80" overlapTraveltime="10.66" density="25.22" overlapDensity="27.42" laneDensity="8.41" occupancy="4.29" waitingTime="105.00" timeLoss="276.47" speed="6.72" speedRelative="0.48" departed="5" arrived="1" entered="46" left="49" laneChangedFrom="57" laneChangedTo="57" flow="617.53"/>
        <edge id="292179033#4" sampledSeconds="389.87" traveltime="7.11" overlapTraveltime="7.58" density="15.20" overlapDensity="16.18" laneDensity="5.07" occupancy="2.52" waitingTime="0.00" timeLoss="64.08" speed="11.63" speedRelative="0.84" departed="2" arrived="2" entered="51" left="49" laneChangedFrom="27" laneChangedTo="27" flow="639.66"/>
        <edge id="292179033#6" sampledSeconds="647.41" traveltime="9.86" overlapTraveltime="10.29" density="18.60" overlapDensity="19.37" laneDensity="6.20" occupancy="3.09" waitingTime="6.00" timeLoss="103.02" speed="11.69" speedRelative="0.84" departed="8" arrived="1" entered="56" left="59" laneChangedFrom="44" laneChangedTo="44" flow="782.72"/>
        <edge id="292179033#7" sampledSeconds="255.72" traveltime="3.57" overlapTraveltime="4.15" density="27.41" overlapDensity="31.48" laneDensity="9.14" occupancy="4.58" waitingTime="19.00" timeLoss="106.91" speed="7.95" speedRelative="0.57" departed="2" arrived="3" entered="62" left="56" laneChangedFrom="13" laneChangedTo="13" flow="774.37"/>
        <edge id="292179033#9" sampledSeconds="1038.79" traveltime="18.68" overlapTraveltime="20.48" density="38.66" overlapDensity="42.07" laneDensity="12.89" occupancy="6.62" waitingTime="279.00" timeLoss="714.94" speed="4.40" speedRelative="0.32" departed="3" arrived="2" entered="55" left="43" laneChangedFrom="6" laneChangedTo="6" flow="634.29"/>
        <edge id="30814311#0" sampledSeconds="128.94" traveltime="25.37" overlapTraveltime="25.99" density="2.12" overlapDensity="2.17" laneDensity="2.12" occupancy="1.06" waitingTime="0.00" timeLoss="14.17" speed="8.08" speedRelative="0.97" departed="1" arrived="3" entered="4" left="2" laneChangedFrom="0" laneChangedTo="0" flow="61.76"/>
        <edge id="30814438#0" sampledSeconds="12.18" traveltime="11.52" overlapTraveltime="12.30" density="0.51" overlapDensity="0.54" laneDensity="0.51" occupancy="0.25" waitingTime="0.00" timeLoss="2.50" speed="6.71" speedRelative="0.81" departed="1" arrived="0" entered="1" left="1" laneChangedFrom="0" laneChangedTo="0" flow="12.28"/>
        <edge id="30814438#2" sampledSeconds="28.58" traveltime="3.69" overlapTraveltime="4.74" density="6.72" overlapDensity="8.61" laneDensity="6.72" occupancy="3.54" waitingTime="4.00" timeLoss="15.32" speed="3.47" speedRelative="0.42" departed="2" arrived="0" entered="5" left="6" laneChangedFrom="0" laneChangedTo="0" flow="74.95"/>
        <edge id="30824033#0" sampledSeconds="181.08" traveltime="16.93" overlapTraveltime="17.63" density="4.75" overlapDensity="4.94" laneDensity="4.75" occupancy="2.37" waitingTime="0.00" timeLoss="23.99" speed="7.46" speedRelative="0.90" departed="2" arrived="1" entered="9" left="9" laneChangedFrom="0" laneChangedTo="0" flow="127.66"/>