<?xml version="1.0" encoding="UTF-8"?>

<!-- generated on 2026-03-17T13:06:24.315981+01:00 by Eclipse SUMO GUI 1.26.0
<sumoConfiguration xmlns:xsi="http://www.w3.org/2001/XMLSchema-instance" xsi:noNamespaceSchemaLocation="http://sumo.dlr.de/xsd/sumoConfiguration.xsd">

    <input>
        <net-file value="osm.net.xml.gz"/>
        <route-files value="osm.passenger.trips.xml"/>
        <additional-files value="osm.poly.xml.gz,output.add.xml"/>
    </input>

    <output>
        <tripinfo-output value="tripinfos.xml"/>
        <statistic-output value="stats.xml"/>
    </output>

    <processing>
        <ignore-route-errors value="true"/>
        <tls.actuated.jam-threshold value="30"/>
    </processing>

    <routing>
        <device.rerouting.adaptation-steps value="18"/>
        <device.rerouting.adaptation-interval value="10"/>
    </routing>

    <report>
        <verbose value="true"/>
        <duration-log.statistics value="true"/>
        <no-step-log value="true"/>
    </report>

    <gui_only>
        <gui-settings-file value="osm.view.xml"/>
    </gui_only>

</sumoConfiguration>
-->

<meandata xmlns:xsi="http://www.w3.org/2001/XMLSchema-instance" xsi:noNamespaceSchemaLocation="http://sumo.dlr.de/xsd/meandata_file.xsd">
    <interval begin="0.00" end="1333.00" id="wizard_example">
        <edge id="-1023996215#2" sampledSeconds="98.75" traveltime="19.67" overlapTraveltime="20.32" density="0.51" overlapDensity="0.53" laneDensity="0.51" occupancy="0.26" waitingTime="0.00" timeLoss="14.39" speed="7.14" speedRelative="0.86" departed="4" arrived="0" entered="1" left="5" laneChangedFrom="0" laneChangedTo="0" flow="13.11"/>
        <edge id="-103538896" sampledSeconds="31.14" traveltime="14.97" overlapTraveltime="15.63" density="0.20" overlapDensity="0.21" laneDensity="0.20" occupancy="0.10" waitingTime="0.00" timeLoss="2.57" speed="7.61" speedRelative="0.91" departed="0" arrived="2" entered="2" left="0" laneChangedFrom="0" laneChangedTo="0" flow="5.40"/>
        <edge id="-1103834241" sampledSeconds="35.68" traveltime="5.70" overlapTraveltime="7.14" density="0.61" overlapDensity="0.76" laneDensity="0.61" occupancy="0.32" waitingTime="0.00" timeLoss="8.23" speed="5.63" speedRelative="0.68" departed="0" arrived="1" entered="5" left="4" laneChangedFrom="0" laneChangedTo="0" flow="13.50"/>
        <edge id="-170687890" sampledSeconds="136.84" traveltime="22.55" overlapTraveltime="23.57" density="0.65" overlapDensity="0.68" laneDensity="0.65" occupancy="0.33" waitingTime="0.00" timeLoss="20.62" speed="6.66" speedRelative="0.80" departed="6" arrived="0" entered="0" left="6" laneChangedFrom="0" laneChangedTo="0" flow="15.66"/>
        <edge id="-171520872#1" sampledSeconds="225.87" traveltime="112.33" overlapTraveltime="114.56" density="0.68" overlapDensity="0.68" laneDensity="0.68" occupancy="0.34" waitingTime="0.00" timeLoss="51.64" speed="2.20" speedRelative="0.79" departed="0" arrived="2" entered="2" left="0" laneChangedFrom="0" laneChangedTo="0" flow="5.40"/>
        <edge id="-23185949" sampledSeconds="4.42" traveltime="0.06" overlapTraveltime="1.47" density="0.71" overlapDensity="16.58" laneDensity="0.71" occupancy="0.32" waitingTime="0.00" timeLoss="1.20" speed="3.53" speedRelative="0.42" departed="0" arrived="0" entered="3" left="3" laneChangedFrom="0" laneChangedTo="0" flow="8.10"/>
        <edge id="-23276766#0" sampledSeconds="27.51" traveltime="2.96" overlapTraveltime="3.64" density="0.87" overlapDensity="1.01" laneDensity="0.87" occupancy="0.40" waitingTime="0.00" timeLoss="4.58" speed="7.00" speedRelative="0.84" departed="0" arrived="4" entered="8" left="4" laneChangedFrom="0" laneChangedTo="0" flow="21.61"/>
        <edge id="-23276766#2" sampledSeconds="305.31" traveltime="18.22" overlapTraveltime="19.08" density="1.66" overlapDensity="1.74" laneDensity="1.66" occupancy="0.84" waitingTime="0.00" timeLoss="45.64" speed="7.15" speedRelative="0.86" departed="0" arrived="0" entered="16" left="16" laneChangedFrom="0" laneChangedTo="0" flow="43.21"/>
        <edge id="-23296952#2" sampledSeconds="1060.03" traveltime="32.35" overlapTraveltime="33.38" density="4.69" overlapDensity="4.81" laneDensity="4.69" occupancy="2.35" waitingTime="193.00" timeLoss="409.10" speed="5.10" speedRelative="0.61" departed="0" arrived="0" entered="33" left="26" laneChangedFrom="0" laneChangedTo="0" flow="86.23"/>
        <edge id="-237638594#0" sampledSeconds="138.66" traveltime="13.37" overlapTraveltime="14.06" density="1.05" overlapDensity="1.09" laneDensity="1.05" occupancy="0.52" waitingTime="0.00" timeLoss="17.91" speed="7.14" speedRelative="0.86" departed="0" arrived="10" entered="10" left="0" laneChangedFrom="0" laneChangedTo="0" flow="27.01"/>
        <edge id="-237638594#1" sampledSeconds="24.20" traveltime="23.60" overlapTraveltime="24.20" density="0.09" overlapDensity="0.09" laneDensity="0.09" occupancy="0.04" waitingTime="0.00" timeLoss="1.76" speed="8.42" speedRelative="1.01" departed="0" arrived="1" entered="1" left="0" laneChangedFrom="0" laneChangedTo="0" flow="2.70"/>
        <edge id="-237638594#3" sampledSeconds="262.77" traveltime="19.38" overlapTraveltime="20.21" density="1.36" overlapDensity="1.42" laneDensity="1.36" occupancy="0.68" waitingTime="0.00" timeLoss="32.69" speed="7.13" speedRelative="0.86" departed="0" arrived="1" entered="13" left="12" laneChangedFrom="0" laneChangedTo="0" flow="35.11"/>
        <edge id="-30814311#1" sampledSeconds="24.03" traveltime="24.07" overlapTraveltime="24.66" density="0.09" overlapDensity="0.09" laneDensity="0.09" occupancy="0.05" waitingTime="0.00" timeLoss="4.21" speed="8.05" speedRelative="0.97" departed="1" arrived="0" entered="0" left="1" laneChangedFrom="0" laneChangedTo="0" flow="2.63"/>
        <edge id="-30824033#1" sampledSeconds="160.03" traveltime="16.74" overlapTraveltime="17.40" density="0.91" overlapDensity="0.93" laneDensity="0.91" occupancy="0.45" waitingTime="0.00" timeLoss="16.87" speed="7.68" speedRelative="0.92" departed="0" arrived="0" entered="12" left="6" laneChangedFrom="0" laneChangedTo="0" flow="25.18"/>
        <edge id="-30824033#5" sampledSeconds="353.71" traveltime="21.42" overlapTraveltime="22.11" density="1.59" overlapDensity="1.65" laneDensity="1.59" occupancy="0.80" waitingTime="0.00" timeLoss="43.41" speed="7.52" speedRelative="0.90" departed="0" arrived="0" entered="16" left="16" laneChangedFrom="0" laneChangedTo="0" flow="43.21"/>
        <edge id="-33523355#1" sampledSeconds="77.84" traveltime="4.68" overlapTraveltime="5.56" density="1.49" overlapDensity="1.77" laneDensity="1.49" occupancy="0.76" waitingTime="0.00" timeLoss="13.98" speed="6.83" speedRelative="0.82" departed="0" arrived="0" entered="14" left="14" laneChangedFrom="0" laneChangedTo="0" flow="37.81"/>
        <edge id="-33523355#2" sampledSeconds="118.70" traveltime="7.84" overlapTraveltime="8.53" density="1.43" overlapDensity="1.56" laneDensity="1.43" occupancy="0.72" waitingTime="0.00" timeLoss="14.91" speed="7.28" speedRelative="0.87" departed="1" arrived="0" entered="13" left="14" laneChangedFrom="0" laneChangedTo="0" flow="37.57"/>
        <edge id="-33523355#3" sampledSeconds="83.33" traveltime="6.33" overlapTraveltime="6.98" density="1.46" overlapDensity="1.63" laneDensity="1.46" occupancy="0.76" waitingTime="0.00" timeLoss="21.56" speed="6.20" speedRelative="0.74" departed="9" arrived="0" entered="4" left="13" laneChangedFrom="0" laneChangedTo="0" flow="31.87"/>
        <edge id="-33523355#4" sampledSeconds="161.89" traveltime="11.05" overlapTraveltime="11.81" density="1.51" overlapDensity="1.59" laneDensity="1.51" occupancy="0.74" waitingTime="0.00" timeLoss="26.58" speed="6.90" speedRelative="0.83" departed="1" arrived="9" entered="13" left="5" laneChangedFrom="0" laneChangedTo="0" flow="37.63"/>
        <edge id="-33523578#2" sampledSeconds="41.92" traveltime="6.05" overlapTraveltime="6.71" density="0.66" overlapDensity="0.74" laneDensity="0.66" occupancy="0.35" waitingTime="0.00" timeLoss="6.12" speed="7.10" speedRelative="0.85" departed="7" arrived="0" entered="0" left="7" laneChangedFrom="0" laneChangedTo="0" flow="16.64"/>
        <edge id="-37711918" sampledSeconds="55.38" traveltime="6.39" overlapTraveltime="7.09" density="1.09" overlapDensity="1.24" laneDensity="1.09" occupancy="0.58" waitingTime="0.00" timeLoss="18.39" speed="5.43" speedRelative="0.65" departed="9" arrived="0" entered="0" left="9" laneChangedFrom="0" laneChangedTo="0" flow="20.61"/>
        <edge id="-379112060#2" sampledSeconds="70.35" traveltime="3.79" overlapTraveltime="5.18" density="6.26" overlapDensity="7.32" laneDensity="6.26" occupancy="2.95" waitingTime="32.00" timeLoss="47.74" speed="2.36" speedRelative="0.28" departed="0" arrived="9" entered="16" left="6" laneChangedFrom="0" laneChangedTo="0" flow="42.84"/>
        <edge id="-38592259" sampledSeconds="3.02" traveltime="3.13" overlapTraveltime="3.80" density="0.09" overlapDensity="0.11" laneDensity="0.09" occupancy="0.05" waitingTime="0.00" timeLoss="0.33" speed="6.60" speedRelative="0.79" departed="1" arrived="0" entered="0" left="1" laneChangedFrom="0" laneChangedTo="0" flow="2.01"/>
        <edge id="-455829556#2" sampledSeconds="82.17" traveltime="15.84" overlapTraveltime="16.47" density="0.50" overlapDensity="0.52" laneDensity="0.50" occupancy="0.25" waitingTime="0.00" timeLoss="8.56" speed="7.48" speedRelative="0.90" departed="0" arrived="5" entered="5" left="0" laneChangedFrom="0" laneChangedTo="0" flow="13.50"/>
        <edge id="-65292475" sampledSeconds="0.00" departed="0" arrived="0" entered="0" left="0" laneChangedFrom="0" laneChangedTo="0"/>
        <edge id="-685037225#1" sampledSeconds="10.08" traveltime="9.94" overlapTraveltime="10.80" density="0.10" overlapDensity="0.11" laneDensity="0.10" occupancy="0.05" waitingTime="0.00" timeLoss="1.16" speed="7.04" speedRelative="0.84" departed="1" arrived="0" entered="0" left="1" laneChangedFrom="0" laneChangedTo="0" flow="2.51"/>
        <edge id="-808547875" sampledSeconds="67.53" overlapTraveltime="7.80" density="180.05" overlapDensity="253.29" laneDensity="90.02" occupancy="2.52" waitingTime="48.00" timeLoss="56.47" speed="0.67" speedRelative="0.08" departed="9" arrived="0" entered="0" left="9" laneChangedFrom="0" laneChangedTo="0" flow="0.00"/>
        <edge id="-945850922" sampledSeconds="275.63" traveltime="16.95" overlapTraveltime="17.63" density="1.64" overlapDensity="1.70" laneDensity="1.64" occupancy="0.83" waitingTime="0.00" timeLoss="44.00" speed="7.16" speedRelative="0.86" departed="9" arrived="0" entered="7" left="16" laneChangedFrom="0" laneChangedTo="0" flow="42.19"/>
        <edge id="1023996215#0" sampledSeconds="79.98" traveltime="19.27" overlapTraveltime="19.99" density="0.41" overlapDensity="0.42" laneDensity="0.41" occupancy="0.20" waitingTime="0.00" timeLoss="8.60" speed="7.35" speedRelative="0.88" departed="0" arrived="0" entered="4" left="4" laneChangedFrom="0" laneChangedTo="0" flow="10.80"/>
        <edge id="103538896" sampledSeconds="359.09" traveltime="17.08" overlapTraveltime="17.86" density="2.25" overlapDensity="2.35" laneDensity="2.25" occupancy="1.15" waitingTime="0.00" timeLoss="60.52" speed="6.69" speedRelative="0.80" departed="21" arrived="0" entered="0" left="21" laneChangedFrom="0" laneChangedTo="0" flow="54.19"/>
        <edge id="1067121593#0" sampledSeconds="751.09" traveltime="22.63" overlapTraveltime="23.48" density="3.68" overlapDensity="3.82" laneDensity="3.68" occupancy="1.84" waitingTime="0.00" timeLoss="154.72" speed="6.50" speedRelative="0.78" departed="0" arrived="4" entered="32" left="28" laneChangedFrom="0" laneChangedTo="0" flow="86.42"/>
        <edge id="1103834241" sampledSeconds="25.52" traveltime="5.71" overlapTraveltime="6.38" density="0.46" overlapDensity="0.51" laneDensity="0.46" occupancy="0.21" waitingTime="0.00" timeLoss="4.99" speed="6.67" speedRelative="0.80" departed="0" arrived="0" entered="4" left="4" laneChangedFrom="0" laneChangedTo="0" flow="10.80"/>
        <edge id="1221422471" sampledSeconds="6.94" traveltime="6.94" overlapTraveltime="7.73" density="0.12" overlapDensity="0.12" laneDensity="0.12" occupancy="0.06" waitingTime="0.00" timeLoss="0.67" speed="6.26" speedRelative="0.75" departed="0" arrived="1" entered="1" left="0" laneChangedFrom="0" laneChangedTo="0" flow="2.70"/>
        <edge id="135982476#0" sampledSeconds="758.45" traveltime="20.12" overlapTraveltime="20.56" density="2.49" overlapDensity="2.55" laneDensity="0.83" occupancy="0.42" waitingTime="0.00" timeLoss="155.87" speed="11.11" speedRelative="0.80" departed="38" arrived="0" entered="0" left="36" laneChangedFrom="10" laneChangedTo="10" flow="99.68"/>
        <edge id="135982476#3" sampledSeconds="456.53" traveltime="8.17" overlapTraveltime="8.65" density="3.49" overlapDensity="3.67" laneDensity="1.16" occupancy="0.58" waitingTime="0.00" timeLoss="89.69" speed="11.36" speedRelative="0.82" departed="0" arrived="19" entered="55" left="32" laneChangedFrom="6" laneChangedTo="6" flow="143.39"/>
        <edge id="1462715258" sampledSeconds="1.43" traveltime="1.44" overlapTraveltime="2.15" density="0.05" overlapDensity="0.11" laneDensity="0.05" occupancy="0.04" waitingTime="0.00" timeLoss="0.02" speed="7.04" speedRelative="0.85" departed="1" arrived="0" entered="0" left="1" laneChangedFrom="0" laneChangedTo="0" flow="1.35"/>
        <edge id="1467263794#0" sampledSeconds="501.85" traveltime="9.45" overlapTraveltime="9.86" density="3.16" overlapDensity="3.30" laneDensity="1.05" occupancy="0.52" waitingTime="2.00" timeLoss="62.67" speed="12.09" speedRelative="0.87" departed="0" arrived="11" entered="51" left="40" laneChangedFrom="19" laneChangedTo="19" flow="137.73"/>
        <edge id="1467263796#0" sampledSeconds="80.17" traveltime="18.77" overlapTraveltime="19.17" density="0.25" overlapDensity="0.25" laneDensity="0.08" occupancy="0.04" waitingTime="0.00" timeLoss="4.08" speed="12.60" speedRelative="0.91" departed="0" arrived="2" entered="9" left="0" laneChangedFrom="0" laneChangedTo="0" flow="11.46"/>
        <edge id="1467263797#0" sampledSeconds="3174.25" traveltime="27.71" overlapTraveltime="28.68" density="24.67" overlapDensity="25.50" laneDensity="8.22" occupancy="4.13" waitingTime="1258.00" timeLoss="2361.01" speed="3.43" speedRelative="0.25" departed="0" arrived="9" entered="111" left="100" laneChangedFrom="5" laneChangedTo="5" flow="299.28"/>
        <edge id="1467263798#0" sampledSeconds="290.96" traveltime="6.95" overlapTraveltime="7.66" density="3.98" overlapDensity="4.39" laneDensity="3.98" occupancy="1.98" waitingTime="0.00" timeLoss="46.81" speed="7.15" speedRelative="0.86" departed="0" arrived="0" entered="38" left="38" laneChangedFrom="0" laneChangedTo="0" flow="102.63"/>
        <edge id="1472800673#0" sampledSeconds="1493.87" traveltime="23.02" overlapTraveltime="23.57" density="5.51" overlapDensity="5.65" laneDensity="1.84" occupancy="0.93" waitingTime="313.00" timeLoss="579.28" speed="8.63" speedRelative="0.62" departed="65" arrived="0" entered="0" left="65" laneChangedFrom="19" laneChangedTo="19" flow="171.03"/>
        <edge id="1472850568#0" sampledSeconds="730.33" traveltime="11.70" overlapTraveltime="12.55" density="7.70" overlapDensity="8.23" laneDensity="2.57" occupancy="1.31" waitingTime="217.00" timeLoss="431.55" speed="5.70" speedRelative="0.41" departed="9" arrived="4" entered="52" left="52" laneChangedFrom="14" laneChangedTo="14" flow="157.68"/>
        <edge id="1472850569#0" sampledSeconds="509.15" traveltime="7.78" overlapTraveltime="9.08" density="6.42" overlapDensity="7.49" laneDensity="2.14" occupancy="1.11" waitingTime="145.00" timeLoss="276.51" speed="6.17" speedRelative="0.44" departed="9" arrived="8" entered="48" left="49" laneChangedFrom="12" laneChangedTo="12" flow="151.50"/>
        <edge id="1472850569#1" sampledSeconds="1459.56" traveltime="24.05" overlapTraveltime="24.82" density="4.16" overlapDensity="4.29" laneDensity="1.39" occupancy="0.70" waitingTime="126.00" timeLoss="355.55" speed="10.48" speedRelative="0.75" departed="9" arrived="0" entered="50" left="59" laneChangedFrom="59" laneChangedTo="59" flow="158.85"/>
        <edge id="170687890" sampledSeconds="17.09" traveltime="16.55" overlapTraveltime="17.09" density="0.08" overlapDensity="0.09" laneDensity="0.08" occupancy="0.04" waitingTime="0.00" timeLoss="1.34" speed="8.89" speedRelative="1.07" departed="0" arrived="1" entered="1" left="0" laneChangedFrom="0" laneChangedTo="0" flow="2.70"/>
        <edge id="171520872#0" sampledSeconds="515.90" traveltime="130.35" overlapTraveltime="131.71" density="1.59" overlapDensity="1.61" laneDensity="1.59" occupancy="0.80" waitingTime="3.00" timeLoss="138.78" speed="1.87" speedRelative="0.67" departed="4" arrived="0" entered="0" left="4" laneChangedFrom="0" laneChangedTo="0" flow="10.57"/>
        <edge id="210196700#0" sampledSeconds="0.00" departed="0" arrived="0" entered="0" left="0" laneChangedFrom="0" laneChangedTo="0"/>
        <edge id="23185949" sampledSeconds="24.36" traveltime="0.03" overlapTraveltime="0.74" density="3.84" overlapDensity="91.37" laneDensity="3.84" occupancy="1.76" waitingTime="0.00" timeLoss="3.61" speed="7.07" speedRelative="0.85" departed="0" arrived="2" entered="34" left="32" laneChangedFrom="0" laneChangedTo="0" flow="91.82"/>
        <edge id="232512837#0" sampledSeconds="0.00" departed="0" arrived="0" entered="0" left="0" laneChangedFrom="0" laneChangedTo="0"/>
        <edge id="23271710" sampledSeconds="700.33" traveltime="17.22" overlapTraveltime="17.96" density="4.10" overlapDensity="4.28" laneDensity="4.10" occupancy="2.02" waitingTime="0.00" timeLoss="95.59" speed="7.12" speedRelative="0.85" departed="0" arrived="0" entered="39" left="39" laneChangedFrom="0" laneChangedTo="0" flow="105.33"/>
        <edge id="23271717" sampledSeconds="129.43" traveltime="2.69" overlapTraveltime="3.70" density="4.28" overlapDensity="5.87" laneDensity="4.28" occupancy="2.26" waitingTime="0.00" timeLoss="29.52" speed="5.82" speedRelative="0.70" departed="0" arrived="0" entered="35" left="35" laneChangedFrom="0" laneChangedTo="0" flow="94.52"/>
        <edge id="23271728#0" sampledSeconds="8.31" traveltime="7.67" overlapTraveltime="8.31" density="0.12" overlapDensity="0.13" laneDensity="0.12" occupancy="0.05" waitingTime="0.00" timeLoss="1.39" speed="6.59" speedRelative="0.79" departed="0" arrived="1" entered="1" left="0" laneChangedFrom="0" laneChangedTo="0" flow="2.70"/>
        <edge id="23271728#1" sampledSeconds="0.00" departed="0" arrived="0" entered="0" left="0" laneChangedFrom="0" laneChangedTo="0"/>
        <edge id="23271732#0" sampledSeconds="37.27" traveltime="37.22" overlapTraveltime="37.93" density="0.10" overlapDensity="0.10" laneDensity="0.10" occupancy="0.05" waitingTime="0.00" timeLoss="4.18" speed="7.72" speedRelative="0.93" departed="1" arrived="0" entered="0" left="1" laneChangedFrom="0" laneChangedTo="0" flow="2.65"/>
        <edge id="23271762#1" sampledSeconds="95.86" traveltime="3.76" overlapTraveltime="4.50" density="2.66" overlapDensity="3.24" laneDensity="2.66" occupancy="1.39" waitingTime="0.00" timeLoss="25.00" speed="6.04" speedRelative="0.73" departed="9" arrived="0" entered="14" left="23" laneChangedFrom="0" laneChangedTo="0" flow="56.52"/>
        <edge id="23271762#2" sampledSeconds="197.81" traveltime="9.67" overlapTraveltime="10.41" density="2.09" overlapDensity="2.26" laneDensity="2.09" occupancy="1.05" waitingTime="0.00" timeLoss="35.65" speed="6.80" speedRelative="0.82" departed="0" arrived="0" entered="19" left="19" laneChangedFrom="0" laneChangedTo="0" flow="51.31"/>
        <edge id="23271762#3" sampledSeconds="322.60" traveltime="10.89" overlapTraveltime="11.83" density="3.88" overlapDensity="4.23" laneDensity="3.88" occupancy="1.98" waitingTime="14.00" timeLoss="111.39" speed="5.26" speedRelative="0.63" departed="9" arrived="0" entered="19" left="28" laneChangedFrom="0" laneChangedTo="0" flow="73.45"/>
        <edge id="23271799#0" sampledSeconds="34.80" traveltime="34.45" overlapTraveltime="35.63" density="0.12" overlapDensity="0.12" laneDensity="0.12" occupancy="0.06" waitingTime="0.00" timeLoss="3.03" speed="6.21" speedRelative="0.74" departed="1" arrived="0" entered="0" left="1" laneChangedFrom="0" laneChangedTo="0" flow="2.64"/>
        <edge id="23271799#1" sampledSeconds="0.00" departed="0" arrived="0" entered="0" left="0" laneChangedFrom="0" laneChangedTo="0"/>
        <edge id="23276172#0" sampledSeconds="13.09" traveltime="12.68" overlapTraveltime="13.95" density="0.11" overlapDensity="0.13" laneDensity="0.11" occupancy="0.06" waitingTime="0.00" timeLoss="2.47" speed="5.93" speedRelative="0.71" departed="1" arrived="0" entered="0" left="1" laneChangedFrom="0" laneChangedTo="0" flow="2.52"/>
        <edge id="23276195#0" sampledSeconds="1695.54" traveltime="39.19" overlapTraveltime="40.10" density="10.14" overlapDensity="10.36" laneDensity="10.14" occupancy="5.08" waitingTime="809.00" timeLoss="1066.48" speed="3.19" speedRelative="0.38" departed="0" arrived="0" entered="44" left="40" laneChangedFrom="0" laneChangedTo="0" flow="114.45"/>
        <edge id="23276536" sampledSeconds="69.70" traveltime="17.06" overlapTraveltime="17.70" density="0.41" overlapDensity="0.42" laneDensity="0.41" occupancy="0.20" waitingTime="0.00" timeLoss="7.78" speed="7.34" speedRelative="0.88" departed="0" arrived="4" entered="4" left="0" laneChangedFrom="0" laneChangedTo="0" flow="10.80"/>
        <edge id="23276545" sampledSeconds="0.00" departed="0" arrived="0" entered="0" left="0" laneChangedFrom="0" laneChangedTo="0"/>
        <edge id="23276548" sampledSeconds="0.00" departed="0" arrived="0" entered="0" left="0" laneChangedFrom="0" laneChangedTo="0"/>
        <edge id="23276555" sampledSeconds="916.83" traveltime="46.69" overlapTraveltime="48.25" density="8.39" overlapDensity="8.67" laneDensity="8.39" occupancy="4.15" waitingTime="64.00" timeLoss="351.13" speed="1.75" speedRelative="0.63" departed="0" arrived="0" entered="19" left="19" laneChangedFrom="0" laneChangedTo="0" flow="51.31"/>
        <edge id="23276726#0" sampledSeconds="30.77" traveltime="30.24" overlapTraveltime="30.82" density="0.09" overlapDensity="0.09" laneDensity="0.09" occupancy="0.04" waitingTime="0.00" timeLoss="2.43" speed="8.68" speedRelative="1.04" departed="0" arrived="1" entered="1" left="0" laneChangedFrom="0" laneChangedTo="0" flow="2.70"/>
        <edge id="23276766#0" sampledSeconds="168.46" traveltime="3.37" overlapTraveltime="4.19" density="4.97" overlapDensity="6.22" laneDensity="4.97" occupancy="2.56" waitingTime="0.00" timeLoss="44.82" speed="6.04" speedRelative="0.72" departed="4" arrived="0" entered="37" left="41" laneChangedFrom="0" laneChangedTo="0" flow="108.02"/>
        <edge id="23276766#1" sampledSeconds="71.17" traveltime="17.07" overlapTraveltime="17.79" density="0.39" overlapDensity="0.41" laneDensity="0.39" occupancy="0.20" waitingTime="0.00" timeLoss="6.84" speed="7.61" speedRelative="0.91" departed="0" arrived="0" entered="4" left="4" laneChangedFrom="0" laneChangedTo="0" flow="10.80"/>
        <edge id="23276766#3" sampledSeconds="26.69" traveltime="16.98" overlapTraveltime="17.68" density="0.17" overlapDensity="0.17" laneDensity="0.17" occupancy="0.08" waitingTime="0.00" timeLoss="2.60" speed="6.93" speedRelative="0.83" departed="0" arrived="0" entered="3" left="1" laneChangedFrom="0" laneChangedTo="0" flow="4.13"/>
        <edge id="23295986#0" sampledSeconds="555.93" traveltime="9.43" overlapTraveltime="10.28" density="9.12" overlapDensity="9.89" laneDensity="3.04" occupancy="1.54" waitingTime="171.00" timeLoss="365.34" speed="4.59" speedRelative="0.33" departed="1" arrived="9" entered="54" left="45" laneChangedFrom="18" laneChangedTo="18" flow="146.78"/>
        <edge id="23296952#0" sampledSeconds="1558.42" traveltime="23.90" overlapTraveltime="24.63" density="6.89" overlapDensity="7.09" laneDensity="6.89" occupancy="3.44" waitingTime="0.00" timeLoss="268.09" speed="6.90" speedRelative="0.83" departed="1" arrived="0" entered="67" left="60" laneChangedFrom="0" laneChangedTo="0" flow="171.13"/>
        <edge id="237638594#0" sampledSeconds="36.56" traveltime="12.13" overlapTraveltime="12.86" density="0.28" overlapDensity="0.30" laneDensity="0.28" occupancy="0.14" waitingTime="0.00" timeLoss="3.13" speed="7.56" speedRelative="0.91" departed="3" arrived="0" entered="0" left="3" laneChangedFrom="0" laneChangedTo="0" flow="7.65"/>
        <edge id="237638594#1" sampledSeconds="80.96" traveltime="26.32" overlapTraveltime="26.99" density="0.29" overlapDensity="0.30" laneDensity="0.29" occupancy="0.15" waitingTime="0.00" timeLoss="6.26" speed="7.69" speedRelative="0.92" departed="0" arrived="0" entered="3" left="3" laneChangedFrom="0" laneChangedTo="0" flow="8.10"/>
        <edge id="237638594#2" sampledSeconds="79.74" traveltime="18.81" overlapTraveltime="19.93" density="0.41" overlapDensity="0.43" laneDensity="0.41" occupancy="0.21" waitingTime="2.00" timeLoss="12.30" speed="7.22" speedRelative="0.87" departed="0" arrived="0" entered="4" left="4" laneChangedFrom="0" laneChangedTo="0" flow="10.80"/>
        <edge id="23837909#0" sampledSeconds="553.15" traveltime="19.41" overlapTraveltime="19.79" density="1.60" overlapDensity="1.63" laneDensity="0.53" occupancy="0.27" waitingTime="0.00" timeLoss="32.78" speed="13.16" speedRelative="0.95" departed="0" arrived="28" entered="28" left="0" laneChangedFrom="4" laneChangedTo="4" flow="75.62"/>
        <edge id="23837911#0" sampledSeconds="147.13" traveltime="1.31" overlapTraveltime="1.71" density="5.67" overlapDensity="7.41" laneDensity="1.89" occupancy="0.92" waitingTime="0.00" timeLoss="25.11" speed="11.60" speedRelative="0.84" departed="0" arrived="2" entered="86" left="84" laneChangedFrom="2" laneChangedTo="2" flow="232.26"/>
        <edge id="23837911#1" sampledSeconds="1497.53" traveltime="17.15" overlapTraveltime="17.55" density="5.07" overlapDensity="5.18" laneDensity="1.69" occupancy="0.84" waitingTime="0.00" timeLoss="142.10" speed="12.65" speedRelative="0.91" departed="0" arrived="0" entered="86" left="82" laneChangedFrom="67" laneChangedTo="67" flow="230.70"/>
        <edge id="23837911#4" sampledSeconds="1525.76" traveltime="19.41" overlapTraveltime="20.30" density="10.66" overlapDensity="11.06" laneDensity="3.55" occupancy="1.79" waitingTime="556.00" timeLoss="938.23" speed="5.34" speedRelative="0.38" departed="1" arrived="2" entered="81" left="61" laneChangedFrom="34" laneChangedTo="34" flow="204.64"/>
        <edge id="292179033#0" sampledSeconds="1119.69" traveltime="9.06" overlapTraveltime="9.79" density="11.69" overlapDensity="12.60" laneDensity="3.90" occupancy="1.97" waitingTime="150.00" timeLoss="527.64" speed="7.32" speedRelative="0.53" departed="0" arrived="2" entered="116" left="112" laneChangedFrom="107" laneChangedTo="107" flow="309.38"/>
        <edge id="292179033#4" sampledSeconds="1008.29" traveltime="7.47" overlapTraveltime="7.93" density="8.59" overlapDensity="9.10" laneDensity="2.86" occupancy="1.43" waitingTime="0.00" timeLoss="190.92" speed="11.11" speedRelative="0.80" departed="10" arrived="5" entered="120" left="121" laneChangedFrom="38" laneChangedTo="38" flow="343.90"/>
        <edge id="292179033#6" sampledSeconds="1101.38" traveltime="9.43" overlapTraveltime="9.84" density="6.87" overlapDensity="7.17" laneDensity="2.29" occupancy="1.14" waitingTime="0.00" timeLoss="128.78" speed="12.22" speedRelative="0.88" departed="0" arrived="3" entered="112" left="109" laneChangedFrom="29" laneChangedTo="29" flow="302.48"/>
        <edge id="292179033#7" sampledSeconds="410.79" traveltime="2.80" overlapTraveltime="3.29" density="9.34" overlapDensity="11.00" laneDensity="3.11" occupancy="1.58" waitingTime="0.00" timeLoss="101.74" speed="10.03" speedRelative="0.72" departed="13" arrived="0" entered="114" left="127" laneChangedFrom="12" laneChangedTo="12" flow="336.59"/>
        <edge id="292179033#9" sampledSeconds="1045.16" traveltime="7.91" overlapTraveltime="8.66" density="8.42" overlapDensity="9.21" laneDensity="2.81" occupancy="1.43" waitingTime="17.00" timeLoss="260.09" speed="10.40" speedRelative="0.75" departed="4" arrived="10" entered="117" left="111" laneChangedFrom="4" laneChangedTo="4" flow="326.13"/>
        <edge id="30814311#0" sampledSeconds="331.48" traveltime="29.44" overlapTraveltime="30.19" density="1.19" overlapDensity="1.21" laneDensity="1.19" occupancy="0.59" waitingTime="0.00" timeLoss="44.77" speed="6.96" speedRelative="0.83" departed="0" arrived="1" entered="11" left="10" laneChangedFrom="0" laneChangedTo="0" flow="29.71"/>
        <edge id="30814438#0" sampledSeconds="139.23" traveltime="15.12" overlapTraveltime="16.29" density="1.25" overlapDensity="1.35" laneDensity="1.25" occupancy="0.64" waitingTime="1.00" timeLoss="48.70" speed="5.07" speedRelative="0.61" departed="0" arrived="0" entered="9" left="8" laneChangedFrom="0" laneChangedTo="0" flow="23.18"/>
        <edge id="30814438#2" sampledSeconds="22.61" traveltime="1.96" overlapTraveltime="2.83" density="1.03" overlapDensity="1.48" laneDensity="1.03" occupancy="0.51" waitingTime="0.00" timeLoss="4.47" speed="5.82" speedRelative="0.70" departed="0" arrived="0" entered="8" left="8" laneChangedFrom="0" laneChangedTo="0" flow="21.61"/>
        <edge id="30824033#0" sampledSeconds="408.91" traveltime="17.87" overlapTraveltime="18.59" density="2.33" overlapDensity="2.43" laneDensity="2.33" occupancy="1.17" waitingTime="0.00" timeLoss="50.76" speed="7.07" speedRelative="0.85" departed="0" arrived="0" entered="22" left="22" laneChangedFrom="0" laneChangedTo="0" flow="59.41"/>