<?xml version="1.0" encoding="UTF-8"?>

<!-- generated on 2026-03-17T12:54:44.894658+01:00 by Eclipse SUMO GUI 1.26.0
<sumoConfiguration xmlns:xsi="http://www.w3.org/2001/XMLSchema-instance" xsi:noNamespaceSchemaLocation="http://sumo.dlr.de/xsd/sumoConfiguration.xsd">

    <input>
        <net-file value="osm.net.xml.gz"/>
        <route-files value="bologna.rou.xml,bologna.emit.xml"/>
        <additional-files value="osm.poly.xml.gz,bologna.det.xml"/>
    </input>

    <output>
        <tripinfo-output value="tripinfos.xml"/>
        <statistic-output value="stats.xml"/>
    </output>

    <processing>
        <ignore-route-errors value="true"/>
        <tls.actuated.jam-threshold value="30"/>
    </processing>

    <report>
        <verbose value="true"/>
        <duration-log.statistics value="true"/>
        <no-step-log value="true"/>
    </report>

    <gui_only>
        <gui-settings-file value="osm.view.xml"/>
    </gui_only>

</sumoConfiguration>
-->

<detector xmlns:xsi="http://www.w3.org/2001/XMLSchema-instance" xsi:noNamespaceSchemaLocation="http://sumo.dlr.de/xsd/det_e1_file.xsd">
    <interval begin="0.00" end="1293.00" id="sp_0_127_2_6_10_1" nVehContrib="70" flow="194.90" occupancy="1.98" speed="13.69" harmonicMeanSpeed="13.66" length="5.00" nVehEntered="70"/>
    <interval begin="0.00" end="1293.00" id="sp_2_6_4_47_4_1" nVehContrib="414" flow="1152.67" occupancy="35.20" speed="6.38" harmonicMeanSpeed="4.55" length="5.00" nVehEntered="522"/>
    <interval begin="0.00" end="1293.00" id="sp_4_47_2_6_8_1" nVehContrib="70" flow="194.90" occupancy="1.99" speed="13.63" harmonicMeanSpeed="13.60" length="5.00" nVehEntered="70"/>
    <interval begin="0.00" end="1293.00" id="sp_4_47_4_46_4_1" nVehContrib="0" flow="0.00" occupancy="0.00" speed="-1.00" harmonicMeanSpeed="-1.00" length="-1.00" nVehEntered="0"/>
</detector>
