<?xml version="1.0" encoding="UTF-8"?>

<!-- generated on 2026-03-17T13:06:24.194991+01:00 by Eclipse SUMO GUI 1.26.0
<sumoConfiguration xmlns:xsi="http://www.w3.org/2001/XMLSchema-instance" xsi:noNamespaceSchemaLocation="http://sumo.dlr.de/xsd/sumoConfiguration.xsd">

    <input>
        <net-file value="osm.net.xml.gz"/>
        <route-files value="osm.passenger.trips.xml"/>
        <additional-files value="osm.poly.xml.gz,output.add.xml"/>
    </input>

    <output>
        <tripinfo-output value="tripinfos.xml"/>
        <statistic-output value="stats.xml"/>
    </output>

    <processing>
        <ignore-route-errors value="true"/>
        <tls.actuated.jam-threshold value="30"/>
    </processing>

    <routing>
        <device.rerouting.adaptation-steps value="18"/>
        <device.rerouting.adaptation-interval value="10"/>
    </routing>

    <report>
        <verbose value="true"/>
        <duration-log.statistics value="true"/>
        <no-step-log value="true"/>
    </report>

    <gui_only>
        <gui-settings-file value="osm.view.xml"/>
    </gui_only>

</sumoConfiguration>
-->

<tripinfos xmlns:xsi="http://www.w3.org/2001/XMLSchema-instance" xsi:noNamespaceSchemaLocation="http://sumo.dlr.de/xsd/tripinfo_file.xsd">
    <tripinfo id="veh1" depart="17.00" departLane="135982476#0_0" departPos="5.10" departSpeed="13.03" departDelay="0.09" arrival="59.00" arrivalLane="1467263794#0_0" arrivalPos="114.21" arrivalSpeed="12.27" duration="42.00" routeLength="511.04" waitingTime="0.00" waitingCount="0" stopTime="0.00" timeLoss="2.77" rerouteNo="1" devices="tripinfo_veh1 routing_veh1" vType="veh_passenger" speedFactor="0.94" vaporized=""/>
    <tripinfo id="veh2" depart="34.00" departLane="292179033#4_0" departPos="5.10" departSpeed="0.00" departDelay="0.18" arrival="63.00" arrivalLane="292179033#9_0" arrivalPos="85.14" arrivalSpeed="13.60" duration="29.00" routeLength="346.49" waitingTime="0.00" waitingCount="0" stopTime="0.00" timeLoss="4.22" rerouteNo="1" devices="tripinfo_veh2 routing_veh2" vType="veh_passenger" speedFactor="1.01" vaporized=""/>
    <tripinfo id="veh0" depart="0.00" departLane="23296952#0_0" departPos="5.10" departSpeed="0.00" departDelay="0.00" arrival="162.00" arrivalLane="-103538896_0" arrivalPos="113.95" arrivalSpeed="7.59" duration="162.00" routeLength="1424.37" waitingTime="4.00" waitingCount="1" stopTime="0.00" timeLoss="23.48" rerouteNo="1" devices="tripinfo_veh0 routing_veh0" vType="veh_passenger" speedFactor="1.06" vaporized=""/>
    <tripinfo id="veh5" depart="85.00" departLane="-170687890_0" departPos="5.10" departSpeed="6.92" departDelay="0.46" arrival="200.00" arrivalLane="1221422471_0" arrivalPos="43.40" arrivalSpeed="6.75" duration="115.00" routeLength="725.01" waitingTime="10.00" waitingCount="1" stopTime="0.00" timeLoss="22.80" rerouteNo="1" devices="tripinfo_veh5 routing_veh5" vType="veh_passenger" speedFactor="0.83" vaporized=""/>
    <tripinfo id="veh11" depart="186.00" departLane="33523402_1" departPos="0.20" departSpeed="0.00" departDelay="0.01" arrival="218.00" arrivalLane="23837911#4_1" arrivalPos="103.48" arrivalSpeed="13.09" duration="32.00" routeLength="386.03" waitingTime="0.00" waitingCount="0" stopTime="0.00" timeLoss="3.65" rerouteNo="1" devices="tripinfo_veh11 routing_veh11" vType="veh_passenger" speedFactor="1.03" vaporized=""/>
    <tripinfo id="veh7" depart="119.00" departLane="103538896_0" departPos="5.10" departSpeed="7.38" departDelay="0.64" arrival="240.00" arrivalLane="23837911#0_1" arrivalPos="14.89" arrivalSpeed="10.41" duration="121.00" routeLength="845.18" waitingTime="7.00" waitingCount="2" stopTime="0.00" timeLoss="26.76" rerouteNo="1" devices="tripinfo_veh7 routing_veh7" vType="veh_passenger" speedFactor="0.89" vaporized=""/>
    <tripinfo id="veh4" depart="68.00" departLane="1472800673#0_0" departPos="5.10" departSpeed="14.31" departDelay="0.37" arrival="252.00" arrivalLane="-1103834241_0" arrivalPos="35.15" arrivalSpeed="8.51" duration="184.00" routeLength="1581.45" waitingTime="26.00" waitingCount="3" stopTime="0.00" timeLoss="51.50" rerouteNo="1" devices="tripinfo_veh4 routing_veh4" vType="veh_passenger" speedFactor="1.03" vaporized=""/>
    <tripinfo id="veh6" depart="102.00" departLane="237638594#0_0" departPos="5.10" departSpeed="8.71" departDelay="0.55" arrival="266.00" arrivalLane="23837909#0_0" arrivalPos="255.35" arrivalSpeed="13.29" duration="164.00" routeLength="1608.98" waitingTime="6.00" waitingCount="1" stopTime="0.00" timeLoss="30.13" rerouteNo="1" devices="tripinfo_veh6 routing_veh6" vType="veh_passenger" speedFactor="1.05" vaporized=""/>
    <tripinfo id="veh3" depart="51.00" departLane="391140800#2_0" departPos="5.10" departSpeed="0.00" departDelay="0.27" arrival="283.00" arrivalLane="-237638594#0_0" arrivalPos="95.39" arrivalSpeed="7.75" duration="232.00" routeLength="1728.33" waitingTime="19.00" waitingCount="2" stopTime="0.00" timeLoss="47.40" rerouteNo="1" devices="tripinfo_veh3 routing_veh3" vType="veh_passenger" speedFactor="1.08" vaporized=""/>
    <tripinfo id="veh9" depart="153.00" departLane="1462715258_0" departPos="5.10" departSpeed="7.14" departDelay="0.82" arrival="286.00" arrivalLane="-455829556#2_0" arrivalPos="118.16" arrivalSpeed="6.92" duration="133.00" routeLength="1082.05" waitingTime="13.00" waitingCount="2" stopTime="0.00" timeLoss="32.08" rerouteNo="1" devices="tripinfo_veh9 routing_veh9" vType="veh_passenger" speedFactor="0.86" vaporized=""/>
    <tripinfo id="veh13" depart="220.00" departLane="33523355#0_0" departPos="5.10" departSpeed="0.00" departDelay="0.19" arrival="287.00" arrivalLane="292179033#0_2" arrivalPos="66.64" arrivalSpeed="14.76" duration="67.00" routeLength="489.45" waitingTime="7.00" waitingCount="1" stopTime="0.00" timeLoss="17.37" rerouteNo="1" devices="tripinfo_veh13 routing_veh13" vType="veh_passenger" speedFactor="1.12" vaporized=""/>
    <tripinfo id="veh10" depart="170.00" departLane="-33523578#2_0" departPos="5.10" departSpeed="9.09" departDelay="0.92" arrival="292.00" arrivalLane="-237638594#1_0" arrivalPos="198.81" arrivalSpeed="8.39" duration="122.00" routeLength="986.48" waitingTime="5.00" waitingCount="1" stopTime="0.00" timeLoss="20.55" rerouteNo="1" devices="tripinfo_veh10 routing_veh10" vType="veh_passenger" speedFactor="1.09" vaporized=""/>
    <tripinfo id="veh8" depart="136.00" departLane="31103210_0" departPos="5.10" departSpeed="0.00" departDelay="0.73" arrival="300.00" arrivalLane="-103538896_0" arrivalPos="113.95" arrivalSpeed="7.31" duration="164.00" routeLength="1271.85" waitingTime="13.00" waitingCount="2" stopTime="0.00" timeLoss="36.75" rerouteNo="1" devices="tripinfo_veh8 routing_veh8" vType="veh_passenger" speedFactor="0.94" vaporized=""/>
    <tripinfo id="veh12" depart="203.00" departLane="23271732#0_0" departPos="5.10" departSpeed="0.00" departDelay="0.10" arrival="327.00" arrivalLane="83202926#2_0" arrivalPos="4.26" arrivalSpeed="7.57" duration="124.00" routeLength="1034.86" waitingTime="2.00" waitingCount="1" stopTime="0.00" timeLoss="20.19" rerouteNo="1" devices="tripinfo_veh12 routing_veh12" vType="veh_passenger" speedFactor="1.05" vaporized=""/>
    <tripinfo id="veh15" depart="254.00" departLane="23837911#4_0" departPos="5.10" departSpeed="0.00" departDelay="0.37" arrival="405.00" arrivalLane="-171520872#1_0" arrivalPos="247.58" arrivalSpeed="2.06" duration="151.00" routeLength="436.58" waitingTime="0.00" waitingCount="0" stopTime="0.00" timeLoss="38.55" rerouteNo="1" devices="tripinfo_veh15 routing_veh15" vType="veh_passenger" speedFactor="0.93" vaporized=""/>
    <tripinfo id="veh17" depart="288.00" departLane="-33523355#2_0" departPos="5.10" departSpeed="0.00" departDelay="0.56" arrival="405.00" arrivalLane="1467263794#0_0" arrivalPos="114.21" arrivalSpeed="11.82" duration="117.00" routeLength="807.27" waitingTime="4.00" waitingCount="1" stopTime="0.00" timeLoss="18.88" rerouteNo="1" devices="tripinfo_veh17 routing_veh17" vType="veh_passenger" speedFactor="0.94" vaporized=""/>
    <tripinfo id="veh19" depart="322.00" departLane="23295986#0_2" departPos="5.10" departSpeed="0.00" departDelay="0.74" arrival="407.00" arrivalLane="170687890_0" arrivalPos="146.90" arrivalSpeed="9.35" duration="85.00" routeLength="885.04" waitingTime="4.00" waitingCount="1" stopTime="0.00" timeLoss="21.67" rerouteNo="1" devices="tripinfo_veh19 routing_veh19" vType="veh_passenger" speedFactor="1.16" vaporized=""/>
    <tripinfo id="veh16" depart="271.00" departLane="103538896_0" departPos="5.10" departSpeed="7.32" departDelay="0.46" arrival="431.00" arrivalLane="1467263796#0_0" arrivalPos="236.51" arrivalSpeed="11.78" duration="160.00" routeLength="1228.56" waitingTime="13.00" waitingCount="2" stopTime="0.00" timeLoss="35.19" rerouteNo="1" devices="tripinfo_veh16 routing_veh16" vType="veh_passenger" speedFactor="0.88" vaporized=""/>
    <tripinfo id="veh14" depart="237.00" departLane="34034103#1_0" departPos="5.10" departSpeed="0.00" departDelay="0.28" arrival="434.00" arrivalLane="23837911#0_1" arrivalPos="14.89" arrivalSpeed="10.60" duration="197.00" routeLength="891.10" waitingTime="17.00" waitingCount="3" stopTime="0.00" timeLoss="61.76" rerouteNo="1" devices="tripinfo_veh14 routing_veh14" vType="veh_passenger" speedFactor="0.99" vaporized=""/>
    <tripinfo id="veh18" depart="305.00" departLane="-33523578#2_0" departPos="5.10" departSpeed="7.80" departDelay="0.65" arrival="455.00" arrivalLane="1467263796#0_0" arrivalPos="236.51" arrivalSpeed="12.11" duration="150.00" routeLength="1252.22" waitingTime="14.00" waitingCount="1" stopTime="0.00" timeLoss="30.08" rerouteNo="1" devices="tripinfo_veh18 routing_veh18" vType="veh_passenger" speedFactor="0.94" vaporized=""/>
    <tripinfo id="veh25" depart="423.00" departLane="33523355#4_0" departPos="5.10" departSpeed="0.00" departDelay="0.29" arrival="487.00" arrivalLane="33523578#0_0" arrivalPos="41.49" arrivalSpeed="6.60" duration="64.00" routeLength="414.02" waitingTime="0.00" waitingCount="0" stopTime="0.00" timeLoss="6.71" rerouteNo="1" devices="tripinfo_veh25 routing_veh25" vType="veh_passenger" speedFactor="0.87" vaporized=""/>
    <tripinfo id="veh22" depart="372.00" departLane="-685037225#1_0" departPos="5.10" departSpeed="8.12" departDelay="0.01" arrival="488.00" arrivalLane="31103210_0" arrivalPos="110.43" arrivalSpeed="7.23" duration="116.00" routeLength="944.32" waitingTime="14.00" waitingCount="2" stopTime="0.00" timeLoss="31.34" rerouteNo="1" devices="tripinfo_veh22 routing_veh22" vType="veh_passenger" speedFactor="0.97" vaporized=""/>
    <tripinfo id="veh20" depart="339.00" departLane="135982476#0_2" departPos="5.10" departSpeed="14.14" departDelay="0.83" arrival="490.00" arrivalLane="83202926#2_0" arrivalPos="4.26" arrivalSpeed="8.45" duration="151.00" routeLength="1382.26" waitingTime="23.00" waitingCount="3" stopTime="0.00" timeLoss="47.89" rerouteNo="1" devices="tripinfo_veh20 routing_veh20" vType="veh_passenger" speedFactor="1.02" vaporized=""/>
    <tripinfo id="veh21" depart="356.00" departLane="237638594#0_0" departPos="5.10" departSpeed="8.41" departDelay="0.92" arrival="542.00" arrivalLane="23837911#4_0" arrivalPos="103.48" arrivalSpeed="14.01" duration="186.00" routeLength="1734.59" waitingTime="8.00" waitingCount="4" stopTime="0.00" timeLoss="37.80" rerouteNo="1" devices="tripinfo_veh21 routing_veh21" vType="veh_passenger" speedFactor="1.01" vaporized=""/>
    <tripinfo id="veh23" depart="389.00" departLane="-38592259_0" departPos="5.10" departSpeed="7.41" departDelay="0.11" arrival="547.00" arrivalLane="23185949_0" arrivalPos="0.20" arrivalSpeed="2.22" duration="158.00" routeLength="1143.85" waitingTime="11.00" waitingCount="1" stopTime="0.00" timeLoss="31.20" rerouteNo="1" devices="tripinfo_veh23 routing_veh23" vType="veh_passenger" speedFactor="0.89" vaporized=""/>
    <tripinfo id="veh26" depart="440.00" departLane="103538896_0" departPos="5.10" departSpeed="7.64" departDelay="0.38" arrival="556.00" arrivalLane="83202926#2_0" arrivalPos="4.26" arrivalSpeed="6.43" duration="116.00" routeLength="891.23" waitingTime="2.00" waitingCount="1" stopTime="0.00" timeLoss="17.67" rerouteNo="1" devices="tripinfo_veh26 routing_veh26" vType="veh_passenger" speedFactor="0.92" vaporized=""/>
    <tripinfo id="veh24" depart="406.00" departLane="23271799#0_0" departPos="5.10" departSpeed="6.88" departDelay="0.20" arrival="605.00" arrivalLane="30814311#0_0" arrivalPos="204.96" arrivalSpeed="6.09" duration="199.00" routeLength="1384.41" waitingTime="4.00" waitingCount="1" stopTime="0.00" timeLoss="30.95" rerouteNo="1" devices="tripinfo_veh24 routing_veh24" vType="veh_passenger" speedFactor="0.83" vaporized=""/>
    <tripinfo id="veh32" depart="542.00" departLane="-33523578#2_0" departPos="5.10" departSpeed="8.37" departDelay="0.93" arrival="625.00" arrivalLane="292179033#0_2" arrivalPos="66.64" arrivalSpeed="12.82" duration="83.00" routeLength="523.86" waitingTime="13.00" waitingCount="1" stopTime="0.00" timeLoss="23.07" rerouteNo="1" devices="tripinfo_veh32 routing_veh32" vType="veh_passenger" speedFactor="1.01" vaporized=""/>
    <tripinfo id="veh34" depart="575.00" departLane="971680056#0_0" departPos="5.10" departSpeed="0.00" departDelay="0.11" arrival="625.00" arrivalLane="23837909#0_0" arrivalPos="255.35" arrivalSpeed="13.07" duration="50.00" routeLength="618.44" waitingTime="0.00" waitingCount="0" stopTime="0.00" timeLoss="4.88" rerouteNo="0" devices="tripinfo_veh34 routing_veh34" vType="veh_passenger" speedFactor="0.99" vaporized=""/>
    <tripinfo id="veh30" depart="508.00" departLane="1472800673#0_0" departPos="5.10" departSpeed="16.37" departDelay="0.75" arrival="635.00" arrivalLane="135982476#3_0" arrivalPos="93.28" arrivalSpeed="16.33" duration="127.00" routeLength="1451.63" waitingTime="11.00" waitingCount="1" stopTime="0.00" timeLoss="29.00" rerouteNo="1" devices="tripinfo_veh30 routing_veh30" vType="veh_passenger" speedFactor="1.18" vaporized=""/>
    <tripinfo id="veh33" depart="558.00" departLane="-30814311#1_0" departPos="5.10" departSpeed="0.00" departDelay="0.02" arrival="658.00" arrivalLane="23185949_0" arrivalPos="0.20" arrivalSpeed="4.23" duration="100.00" routeLength="961.09" waitingTime="0.00" waitingCount="0" stopTime="0.00" timeLoss="14.28" rerouteNo="1" devices="tripinfo_veh33 routing_veh33" vType="veh_passenger" speedFactor="1.17" vaporized=""/>
    <tripinfo id="veh29" depart="491.00" departLane="23276172#0_0" departPos="5.10" departSpeed="0.00" departDelay="0.65" arrival="664.00" arrivalLane="685037225#0_0" arrivalPos="71.12" arrivalSpeed="7.14" duration="173.00" routeLength="1374.24" waitingTime="3.00" waitingCount="2" stopTime="0.00" timeLoss="25.67" rerouteNo="1" devices="tripinfo_veh29 routing_veh29" vType="veh_passenger" speedFactor="0.93" vaporized=""/>
    <tripinfo id="veh31" depart="525.00" departLane="-33523355#4_0" departPos="5.10" departSpeed="0.00" departDelay="0.84" arrival="672.00" arrivalLane="-171520872#1_0" arrivalPos="247.58" arrivalSpeed="2.71" duration="147.00" routeLength="664.71" waitingTime="0.00" waitingCount="0" stopTime="0.00" timeLoss="27.73" rerouteNo="1" devices="tripinfo_veh31 routing_veh31" vType="veh_passenger" speedFactor="1.15" vaporized=""/>
    <tripinfo id="veh35" depart="592.00" departLane="83202926#0_1" departPos="5.10" departSpeed="0.00" departDelay="0.20" arrival="680.00" arrivalLane="38592259_0" arrivalPos="15.36" arrivalSpeed="8.19" duration="88.00" routeLength="792.12" waitingTime="0.00" waitingCount="0" stopTime="0.00" timeLoss="10.29" rerouteNo="1" devices="tripinfo_veh35 routing_veh35" vType="veh_passenger" speedFactor="1.02" vaporized=""/>
    <tripinfo id="veh28" depart="474.00" departLane="455829556#0_0" departPos="5.10" departSpeed="9.43" departDelay="0.56" arrival="689.00" arrivalLane="23276726#0_0" arrivalPos="262.58" arrivalSpeed="8.66" duration="215.00" routeLength="1783.44" waitingTime="4.00" waitingCount="1" stopTime="0.00" timeLoss="24.36" rerouteNo="1" devices="tripinfo_veh28 routing_veh28" vType="veh_passenger" speedFactor="1.13" vaporized=""/>
    <tripinfo id="veh37" depart="626.00" departLane="135982476#0_2" departPos="5.10" departSpeed="16.39" departDelay="0.39" arrival="690.00" arrivalLane="292179033#4_2" arrivalPos="83.10" arrivalSpeed="15.71" duration="64.00" routeLength="937.13" waitingTime="0.00" waitingCount="0" stopTime="0.00" timeLoss="5.48" rerouteNo="1" devices="tripinfo_veh37 routing_veh37" vType="veh_passenger" speedFactor="1.18" vaporized=""/>
    <tripinfo id="veh27" depart="457.00" departLane="237638594#0_0" departPos="5.10" departSpeed="7.90" departDelay="0.47" arrival="719.00" arrivalLane="23271728#0_0" arrivalPos="49.69" arrivalSpeed="7.89" duration="262.00" routeLength="1975.78" waitingTime="0.00" waitingCount="0" stopTime="0.00" timeLoss="28.02" rerouteNo="1" devices="tripinfo_veh27 routing_veh27" vType="veh_passenger" speedFactor="0.95" vaporized=""/>
    <tripinfo id="veh39.2" depart="666.00" departLane="1472850568#0_2" departPos="5.10" departSpeed="0.00" departDelay="6.57" arrival="730.00" arrivalLane="83202926#2_0" arrivalPos="4.26" arrivalSpeed="8.04" duration="64.00" routeLength="515.86" waitingTime="7.00" waitingCount="1" stopTime="0.00" timeLoss="23.21" rerouteNo="1" devices="tripinfo_veh39.2 routing_veh39.2" vType="veh_passenger" speedFactor="1.04" vaporized=""/>
    <tripinfo id="veh39.1" depart="663.00" departLane="1472850568#0_2" departPos="5.10" departSpeed="0.00" departDelay="3.57" arrival="732.00" arrivalLane="83202926#2_0" arrivalPos="4.26" arrivalSpeed="8.28" duration="69.00" routeLength="515.86" waitingTime="11.00" waitingCount="2" stopTime="0.00" timeLoss="28.20" rerouteNo="1" devices="tripinfo_veh39.1 routing_veh39.1" vType="veh_passenger" speedFactor="1.04" vaporized=""/>
    <tripinfo id="veh38" depart="643.00" departLane="-33523578#2_0" departPos="5.10" departSpeed="9.18" departDelay="0.48" arrival="736.00" arrivalLane="23276536_0" arrivalPos="125.00" arrivalSpeed="8.77" duration="93.00" routeLength="766.86" waitingTime="0.00" waitingCount="0" stopTime="0.00" timeLoss="8.50" rerouteNo="1" devices="tripinfo_veh38 routing_veh38" vType="veh_passenger" speedFactor="1.10" vaporized=""/>
    <tripinfo id="veh39" depart="660.00" departLane="1472850568#0_2" departPos="5.10" departSpeed="0.00" departDelay="0.57" arrival="748.00" arrivalLane="83202926#2_0" arrivalPos="4.26" arrivalSpeed="8.55" duration="88.00" routeLength="515.86" waitingTime="21.00" waitingCount="3" stopTime="0.00" timeLoss="49.24" rerouteNo="1" devices="tripinfo_veh39 routing_veh39" vType="veh_passenger" speedFactor="1.09" vaporized=""/>
    <tripinfo id="veh39.3" depart="669.00" departLane="1472850568#0_2" departPos="5.10" departSpeed="0.00" departDelay="9.57" arrival="750.00" arrivalLane="83202926#2_0" arrivalPos="4.26" arrivalSpeed="8.79" duration="81.00" routeLength="515.86" waitingTime="13.00" waitingCount="2" stopTime="0.00" timeLoss="42.08" rerouteNo="1" devices="tripinfo_veh39.3 routing_veh39.3" vType="veh_passenger" speedFactor="1.09" vaporized=""/>
    <tripinfo id="veh38.1" depart="644.00" departLane="-33523578#2_0" departPos="5.10" departSpeed="4.14" departDelay="1.48" arrival="758.00" arrivalLane="23276536_0" arrivalPos="125.00" arrivalSpeed="7.48" duration="114.00" routeLength="766.86" waitingTime="0.00" waitingCount="0" stopTime="0.00" timeLoss="10.96" rerouteNo="1" devices="tripinfo_veh38.1 routing_veh38.1" vType="veh_passenger" speedFactor="0.90" vaporized=""/>
    <tripinfo id="veh38.2" depart="646.00" departLane="-33523578#2_0" departPos="5.10" departSpeed="3.18" departDelay="3.48" arrival="760.00" arrivalLane="23276536_0" arrivalPos="125.00" arrivalSpeed="8.45" duration="114.00" routeLength="766.86" waitingTime="0.00" waitingCount="0" stopTime="0.00" timeLoss="23.92" rerouteNo="1" devices="tripinfo_veh38.2 routing_veh38.2" vType="veh_passenger" speedFactor="1.03" vaporized=""/>
    <tripinfo id="veh38.3" depart="649.00" departLane="-33523578#2_0" departPos="5.10" departSpeed="6.06" departDelay="6.48" arrival="762.00" arrivalLane="23276536_0" arrivalPos="125.00" arrivalSpeed="6.84" duration="113.00" routeLength="766.86" waitingTime="0.00" waitingCount="0" stopTime="0.00" timeLoss="16.56" rerouteNo="1" devices="tripinfo_veh38.3 routing_veh38.3" vType="veh_passenger" speedFactor="0.96" vaporized=""/>
    <tripinfo id="veh41" depart="694.00" departLane="455829556#0_0" departPos="5.10" departSpeed="7.12" departDelay="0.75" arrival="776.00" arrivalLane="391140800#0_0" arrivalPos="44.33" arrivalSpeed="6.04" duration="82.00" routeLength="420.44" waitingTime="14.00" waitingCount="1" stopTime="0.00" timeLoss="22.86" rerouteNo="1" devices="tripinfo_veh41 routing_veh41" vType="veh_passenger" speedFactor="0.85" vaporized=""/>
    <tripinfo id="veh41.1" depart="696.00" departLane="455829556#0_0" departPos="5.10" departSpeed="6.52" departDelay="2.75" arrival="778.00" arrivalLane="391140800#0_0" arrivalPos="44.33" arrivalSpeed="9.03" duration="82.00" routeLength="420.44" waitingTime="14.00" waitingCount="1" stopTime="0.00" timeLoss="38.49" rerouteNo="1" devices="tripinfo_veh41.1 routing_veh41.1" vType="veh_passenger" speedFactor="1.17" vaporized=""/>
    <tripinfo id="veh41.2" depart="698.00" departLane="455829556#0_0" departPos="5.10" departSpeed="5.26" departDelay="4.75" arrival="781.00" arrivalLane="391140800#0_0" arrivalPos="44.33" arrivalSpeed="7.93" duration="83.00" routeLength="420.44" waitingTime="12.00" waitingCount="1" stopTime="0.00" timeLoss="32.46" rerouteNo="1" devices="tripinfo_veh41.2 routing_veh41.2" vType="veh_passenger" speedFactor="1.02" vaporized=""/>
    <tripinfo id="veh41.3" depart="700.00" departLane="455829556#0_0" departPos="5.10" departSpeed="4.95" departDelay="6.75" arrival="783.00" arrivalLane="391140800#0_0" arrivalPos="44.33" arrivalSpeed="8.70" duration="83.00" routeLength="420.44" waitingTime="12.00" waitingCount="1" stopTime="0.00" timeLoss="36.12" rerouteNo="1" devices="tripinfo_veh41.3 routing_veh41.3" vType="veh_passenger" speedFactor="1.10" vaporized=""/>
    <tripinfo id="veh42.3" depart="715.00" departLane="135982476#0_2" departPos="5.10" departSpeed="9.39" departDelay="4.84" arrival="806.00" arrivalLane="292179033#4_2" arrivalPos="83.10" arrivalSpeed="15.16" duration="91.00" routeLength="937.13" waitingTime="15.00" waitingCount="2" stopTime="0.00" timeLoss="30.89" rerouteNo="1" devices="tripinfo_veh42.3 routing_veh42.3" vType="veh_passenger" speedFactor="1.14" vaporized=""/>
    <tripinfo id="veh42.1" depart="712.00" departLane="135982476#0_2" departPos="5.10" departSpeed="11.17" departDelay="1.84" arrival="810.00" arrivalLane="292179033#4_2" arrivalPos="83.10" arrivalSpeed="13.05" duration="98.00" routeLength="937.13" waitingTime="12.00" waitingCount="2" stopTime="0.00" timeLoss="28.29" rerouteNo="1" devices="tripinfo_veh42.1 routing_veh42.1" vType="veh_passenger" speedFactor="1.00" vaporized=""/>
    <tripinfo id="veh42" depart="711.00" departLane="135982476#0_2" departPos="5.10" departSpeed="13.93" departDelay="0.84" arrival="813.00" arrivalLane="292179033#4_2" arrivalPos="83.10" arrivalSpeed="13.74" duration="102.00" routeLength="937.13" waitingTime="13.00" waitingCount="2" stopTime="0.00" timeLoss="32.76" rerouteNo="1" devices="tripinfo_veh42 routing_veh42" vType="veh_passenger" speedFactor="1.00" vaporized=""/>
    <tripinfo id="veh42.2" depart="713.00" departLane="135982476#0_2" departPos="5.10" departSpeed="7.84" departDelay="2.84" arrival="817.00" arrivalLane="292179033#4_2" arrivalPos="83.10" arrivalSpeed="11.43" duration="104.00" routeLength="937.13" waitingTime="7.00" waitingCount="2" stopTime="0.00" timeLoss="26.47" rerouteNo="1" devices="tripinfo_veh42.2 routing_veh42.2" vType="veh_passenger" speedFactor="0.90" vaporized=""/>
    <tripinfo id="veh43.2" depart="734.00" departLane="23276766#0_0" departPos="5.10" departSpeed="0.00" departDelay="6.94" arrival="822.00" arrivalLane="-455829556#2_0" arrivalPos="118.16" arrivalSpeed="7.74" duration="88.00" routeLength="842.69" waitingTime="5.00" waitingCount="1" stopTime="0.00" timeLoss="18.96" rerouteNo="1" devices="tripinfo_veh43.2 routing_veh43.2" vType="veh_passenger" speedFactor="1.08" vaporized=""/>
    <tripinfo id="veh43" depart="728.00" departLane="23276766#0_0" departPos="5.10" departSpeed="0.00" departDelay="0.94" arrival="825.00" arrivalLane="-455829556#2_0" arrivalPos="118.16" arrivalSpeed="8.31" duration="97.00" routeLength="842.69" waitingTime="10.00" waitingCount="1" stopTime="0.00" timeLoss="23.67" rerouteNo="1" devices="tripinfo_veh43 routing_veh43" vType="veh_passenger" speedFactor="1.02" vaporized=""/>
    <tripinfo id="veh43.1" depart="731.00" departLane="23276766#0_0" departPos="5.10" departSpeed="0.00" departDelay="3.94" arrival="828.00" arrivalLane="-455829556#2_0" arrivalPos="118.16" arrivalSpeed="7.88" duration="97.00" routeLength="842.69" waitingTime="7.00" waitingCount="1" stopTime="0.00" timeLoss="19.76" rerouteNo="1" devices="tripinfo_veh43.1 routing_veh43.1" vType="veh_passenger" speedFactor="0.97" vaporized=""/>
    <tripinfo id="veh43.3" depart="737.00" departLane="23276766#0_0" departPos="5.10" departSpeed="0.00" departDelay="9.94" arrival="830.00" arrivalLane="-455829556#2_0" arrivalPos="118.16" arrivalSpeed="8.52" duration="93.00" routeLength="842.69" waitingTime="4.00" waitingCount="1" stopTime="0.00" timeLoss="25.97" rerouteNo="1" devices="tripinfo_veh43.3 routing_veh43.3" vType="veh_passenger" speedFactor="1.12" vaporized=""/>
    <tripinfo id="veh36" depart="609.00" departLane="-170687890_0" departPos="5.10" departSpeed="8.11" departDelay="0.30" arrival="831.00" arrivalLane="30959354#0_0" arrivalPos="176.72" arrivalSpeed="7.20" duration="222.00" routeLength="1690.56" waitingTime="0.00" waitingCount="0" stopTime="0.00" timeLoss="22.55" rerouteNo="1" devices="tripinfo_veh36 routing_veh36" vType="veh_passenger" speedFactor="0.97" vaporized=""/>
    <tripinfo id="veh44" depart="744.00" departLane="292179033#7_2" departPos="5.10" departSpeed="0.00" departDelay="0.03" arrival="852.00" arrivalLane="23837909#0_0" arrivalPos="255.35" arrivalSpeed="13.41" duration="108.00" routeLength="1019.06" waitingTime="14.00" waitingCount="2" stopTime="0.00" timeLoss="33.75" rerouteNo="1" devices="tripinfo_veh44 routing_veh44" vType="veh_passenger" speedFactor="1.02" vaporized=""/>
    <tripinfo id="veh44.1" depart="747.00" departLane="292179033#7_2" departPos="5.10" departSpeed="0.00" departDelay="3.03" arrival="852.00" arrivalLane="23837909#0_1" arrivalPos="255.35" arrivalSpeed="13.61" duration="105.00" routeLength="1019.06" waitingTime="9.00" waitingCount="2" stopTime="0.00" timeLoss="28.60" rerouteNo="1" devices="tripinfo_veh44.1 routing_veh44.1" vType="veh_passenger" speedFactor="0.99" vaporized=""/>
    <tripinfo id="veh44.2" depart="750.00" departLane="292179033#7_2" departPos="5.10" departSpeed="0.00" departDelay="6.03" arrival="872.00" arrivalLane="23837909#0_0" arrivalPos="255.35" arrivalSpeed="12.60" duration="122.00" routeLength="1019.06" waitingTime="21.00" waitingCount="2" stopTime="0.00" timeLoss="41.85" rerouteNo="1" devices="tripinfo_veh44.2 routing_veh44.2" vType="veh_passenger" speedFactor="0.94" vaporized=""/>
    <tripinfo id="veh44.3" depart="753.00" departLane="292179033#7_2" departPos="5.10" departSpeed="0.00" departDelay="9.03" arrival="875.00" arrivalLane="23837909#0_0" arrivalPos="255.35" arrivalSpeed="11.35" duration="122.00" routeLength="1019.06" waitingTime="16.00" waitingCount="2" stopTime="0.00" timeLoss="36.73" rerouteNo="1" devices="tripinfo_veh44.3 routing_veh44.3" vType="veh_passenger" speedFactor="0.88" vaporized=""/>
    <tripinfo id="veh45.3" depart="773.00" departLane="292179033#9_2" departPos="5.10" departSpeed="0.00" departDelay="12.12" arrival="903.00" arrivalLane="23837909#0_1" arrivalPos="255.35" arrivalSpeed="13.00" duration="130.00" routeLength="1357.10" waitingTime="10.00" waitingCount="1" stopTime="0.00" timeLoss="32.81" rerouteNo="1" devices="tripinfo_veh45.3 routing_veh45.3" vType="veh_passenger" speedFactor="1.02" vaporized=""/>
    <tripinfo id="veh47" depart="795.00" departLane="-170687890_0" departPos="5.10" departSpeed="7.96" departDelay="0.30" arrival="904.00" arrivalLane="83202926#0_0" arrivalPos="38.91" arrivalSpeed="7.60" duration="109.00" routeLength="978.27" waitingTime="8.00" waitingCount="1" stopTime="0.00" timeLoss="21.61" rerouteNo="1" devices="tripinfo_veh47 routing_veh47" vType="veh_passenger" speedFactor="0.96" vaporized=""/>
    <tripinfo id="veh45" depart="761.00" departLane="292179033#9_2" departPos="5.10" departSpeed="0.00" departDelay="0.12" arrival="906.00" arrivalLane="23837909#0_0" arrivalPos="255.35" arrivalSpeed="11.37" duration="145.00" routeLength="1357.10" waitingTime="10.00" waitingCount="3" stopTime="0.00" timeLoss="35.34" rerouteNo="1" devices="tripinfo_veh45 routing_veh45" vType="veh_passenger" speedFactor="0.91" vaporized=""/>
    <tripinfo id="veh45.1" depart="766.00" departLane="292179033#9_2" departPos="5.10" departSpeed="0.00" departDelay="5.12" arrival="907.00" arrivalLane="23837909#0_1" arrivalPos="255.35" arrivalSpeed="11.60" duration="141.00" routeLength="1357.10" waitingTime="14.00" waitingCount="1" stopTime="0.00" timeLoss="31.98" rerouteNo="1" devices="tripinfo_veh45.1 routing_veh45.1" vType="veh_passenger" speedFactor="0.91" vaporized=""/>
    <tripinfo id="veh47.1" depart="797.00" departLane="-170687890_0" departPos="5.10" departSpeed="6.81" departDelay="2.30" arrival="907.00" arrivalLane="83202926#0_0" arrivalPos="38.91" arrivalSpeed="7.54" duration="110.00" routeLength="978.27" waitingTime="8.00" waitingCount="1" stopTime="0.00" timeLoss="24.60" rerouteNo="1" devices="tripinfo_veh47.1 routing_veh47.1" vType="veh_passenger" speedFactor="0.98" vaporized=""/>