<?xml version="1.0" encoding="UTF-8"?>

<!-- generated on 2026-04-08T12:49:40.364720+01:00 by Eclipse SUMO GUI v1_26_0+0818-8fa21e3b56a
<sumoConfiguration xmlns:xsi="http://www.w3.org/2001/XMLSchema-instance" xsi:noNamespaceSchemaLocation="http://sumo.dlr.de/xsd/sumoConfiguration.xsd">

    <input>
        <net-file value="urbanNetworks/Prova_VialeAldini/osm.net.xml.gz"/>
        <route-files value="urbanNetworks/Prova_VialeAldini/heavy.rou.xml"/>
        <additional-files value="urbanNetworks/Prova_VialeAldini/rilevazioni/output.add.xml"/>
    </input>

    <output>
        <tripinfo-output value="urbanNetworks/Prova_VialeAldini/output/tripinfos.xml"/>
        <statistic-output value="urbanNetworks/Prova_VialeAldini/output/stats.xml"/>
    </output>

    <processing>
        <ignore-route-errors value="true"/>
        <tls.actuated.jam-threshold value="30"/>
    </processing>

    <routing>
        <device.rerouting.adaptation-steps value="18"/>
        <device.rerouting.adaptation-interval value="10"/>
    </routing>

    <report>
        <verbose value="true"/>
        <duration-log.statistics value="true"/>
        <no-step-log value="true"/>
    </report>

    <gui_only>
        <gui-settings-file value="urbanNetworks/Prova_VialeAldini/osm.view.xml"/>
    </gui_only>

</sumoConfiguration>
-->

<tripinfos xmlns:xsi="http://www.w3.org/2001/XMLSchema-instance" xsi:noNamespaceSchemaLocation="http://sumo.dlr.de/xsd/tripinfo_file.xsd">
    <tripinfo id="27" depart="27.00" departLane="292179033#6_0" departPos="5.10" departSpeed="0.00" departDelay="0.00" arrival="39.00" arrivalLane="292179033#6_0" arrivalPos="115.26" arrivalSpeed="12.76" duration="12.00" routeLength="110.16" waitingTime="0.00" waitingCount="0" stopTime="0.00" timeLoss="3.34" rerouteNo="0" devices="tripinfo_27" vType="DEFAULT_VEHTYPE" speedFactor="0.95" vaporized=""/>
    <tripinfo id="5" depart="5.00" departLane="-945850922_0" departPos="5.10" departSpeed="0.00" departDelay="0.00" arrival="47.00" arrivalLane="23276766#3_0" arrivalPos="117.54" arrivalSpeed="6.28" duration="42.00" routeLength="238.41" waitingTime="0.00" waitingCount="0" stopTime="0.00" timeLoss="6.43" rerouteNo="0" devices="tripinfo_5" vType="DEFAULT_VEHTYPE" speedFactor="0.83" vaporized=""/>
    <tripinfo id="39" depart="39.00" departLane="135982476#0_0" departPos="5.10" departSpeed="0.00" departDelay="0.00" arrival="69.00" arrivalLane="135982476#3_0" arrivalPos="93.28" arrivalSpeed="11.58" duration="30.00" routeLength="322.72" waitingTime="0.00" waitingCount="0" stopTime="0.00" timeLoss="3.50" rerouteNo="0" devices="tripinfo_39" vType="DEFAULT_VEHTYPE" speedFactor="0.90" vaporized=""/>
    <tripinfo id="40" depart="40.00" departLane="23295986#0_0" departPos="5.10" departSpeed="0.00" departDelay="0.00" arrival="70.00" arrivalLane="1467263796#0_2" arrivalPos="236.51" arrivalSpeed="13.05" duration="30.00" routeLength="290.04" waitingTime="0.00" waitingCount="0" stopTime="0.00" timeLoss="7.97" rerouteNo="0" devices="tripinfo_40" vType="DEFAULT_VEHTYPE" speedFactor="1.03" vaporized=""/>
    <tripinfo id="13" depart="13.00" departLane="-30814311#1_0" departPos="5.10" departSpeed="0.00" departDelay="0.00" arrival="73.00" arrivalLane="-237638594#3_0" arrivalPos="139.09" arrivalSpeed="8.49" duration="60.00" routeLength="481.56" waitingTime="0.00" waitingCount="0" stopTime="0.00" timeLoss="7.59" rerouteNo="0" devices="tripinfo_13" vType="DEFAULT_VEHTYPE" speedFactor="1.12" vaporized=""/>
    <tripinfo id="21" depart="21.00" departLane="1023996215#0_0" departPos="5.10" departSpeed="0.00" departDelay="0.00" arrival="83.00" arrivalLane="1467263798#0_0" arrivalPos="49.75" arrivalSpeed="7.45" duration="62.00" routeLength="411.51" waitingTime="3.00" waitingCount="1" stopTime="0.00" timeLoss="12.95" rerouteNo="0" devices="tripinfo_21" vType="DEFAULT_VEHTYPE" speedFactor="1.01" vaporized=""/>
    <tripinfo id="55" depart="55.00" departLane="379112060#0_0" departPos="5.10" departSpeed="0.00" departDelay="0.00" arrival="93.00" arrivalLane="1467263796#0_2" arrivalPos="236.51" arrivalSpeed="13.43" duration="38.00" routeLength="282.07" waitingTime="10.00" waitingCount="1" stopTime="0.00" timeLoss="15.90" rerouteNo="0" devices="tripinfo_55" vType="DEFAULT_VEHTYPE" speedFactor="1.00" vaporized=""/>
    <tripinfo id="25" depart="25.00" departLane="23185949_0" departPos="0.20" departSpeed="0.00" departDelay="0.00" arrival="94.00" arrivalLane="1023996215#0_0" arrivalPos="142.02" arrivalSpeed="6.85" duration="69.00" routeLength="415.21" waitingTime="0.00" waitingCount="0" stopTime="0.00" timeLoss="9.01" rerouteNo="0" devices="tripinfo_25" vType="DEFAULT_VEHTYPE" speedFactor="0.87" vaporized=""/>
    <tripinfo id="51" depart="51.00" departLane="30814311#0_0" departPos="5.10" departSpeed="0.00" departDelay="0.00" arrival="100.00" arrivalLane="237638594#1_0" arrivalPos="202.43" arrivalSpeed="8.97" duration="49.00" routeLength="414.76" waitingTime="0.00" waitingCount="0" stopTime="0.00" timeLoss="5.75" rerouteNo="0" devices="tripinfo_51" vType="DEFAULT_VEHTYPE" speedFactor="1.17" vaporized=""/>
    <tripinfo id="35" depart="35.00" departLane="-945850922_0" departPos="5.10" departSpeed="0.00" departDelay="0.00" arrival="107.00" arrivalLane="696335395_0" arrivalPos="5.45" arrivalSpeed="8.39" duration="72.00" routeLength="546.80" waitingTime="0.00" waitingCount="0" stopTime="0.00" timeLoss="7.38" rerouteNo="0" devices="tripinfo_35" vType="DEFAULT_VEHTYPE" speedFactor="1.02" vaporized=""/>
    <tripinfo id="12" depart="12.00" departLane="696335396#2_0" departPos="5.10" departSpeed="0.00" departDelay="0.00" arrival="114.00" arrivalLane="23271710_0" arrivalPos="122.79" arrivalSpeed="8.50" duration="102.00" routeLength="649.25" waitingTime="5.00" waitingCount="2" stopTime="0.00" timeLoss="26.52" rerouteNo="0" devices="tripinfo_12" vType="DEFAULT_VEHTYPE" speedFactor="1.05" vaporized=""/>
    <tripinfo id="77" depart="78.00" departLane="-33523355#1_0" departPos="5.10" departSpeed="0.00" departDelay="1.00" arrival="115.00" arrivalLane="1103834241_0" arrivalPos="37.58" arrivalSpeed="7.70" duration="37.00" routeLength="260.33" waitingTime="0.00" waitingCount="0" stopTime="0.00" timeLoss="4.92" rerouteNo="0" devices="tripinfo_77" vType="DEFAULT_VEHTYPE" speedFactor="0.98" vaporized=""/>
    <tripinfo id="46" depart="46.00" departLane="33523355#4_0" departPos="5.10" departSpeed="0.00" departDelay="0.00" arrival="120.00" arrivalLane="23276172#0_0" arrivalPos="77.67" arrivalSpeed="7.45" duration="74.00" routeLength="527.86" waitingTime="0.00" waitingCount="0" stopTime="0.00" timeLoss="9.79" rerouteNo="0" devices="tripinfo_46" vType="DEFAULT_VEHTYPE" speedFactor="1.00" vaporized=""/>
    <tripinfo id="7" depart="7.00" departLane="292179033#6_0" departPos="5.10" departSpeed="0.00" departDelay="0.00" arrival="121.00" arrivalLane="237638594#2_0" arrivalPos="138.88" arrivalSpeed="6.57" duration="114.00" routeLength="812.07" waitingTime="7.00" waitingCount="2" stopTime="0.00" timeLoss="27.54" rerouteNo="0" devices="tripinfo_7" vType="DEFAULT_VEHTYPE" speedFactor="0.89" vaporized=""/>
    <tripinfo id="83" depart="85.00" departLane="103538896_0" departPos="5.10" departSpeed="0.00" departDelay="2.00" arrival="121.00" arrivalLane="30824033#0_0" arrivalPos="126.48" arrivalSpeed="7.70" duration="36.00" routeLength="246.02" waitingTime="0.00" waitingCount="0" stopTime="0.00" timeLoss="4.65" rerouteNo="0" devices="tripinfo_83" vType="DEFAULT_VEHTYPE" speedFactor="0.97" vaporized=""/>
    <tripinfo id="0" depart="0.00" departLane="292179033#4_0" departPos="5.10" departSpeed="0.00" departDelay="0.00" arrival="122.00" arrivalLane="-1103834241_0" arrivalPos="35.15" arrivalSpeed="8.04" duration="122.00" routeLength="889.84" waitingTime="20.00" waitingCount="2" stopTime="0.00" timeLoss="40.72" rerouteNo="0" devices="tripinfo_0" vType="DEFAULT_VEHTYPE" speedFactor="1.06" vaporized=""/>
    <tripinfo id="72" depart="72.00" departLane="23271762#1_0" departPos="5.10" departSpeed="0.00" departDelay="0.00" arrival="122.00" arrivalLane="1023996215#0_0" arrivalPos="142.02" arrivalSpeed="7.46" duration="50.00" routeLength="343.85" waitingTime="0.00" waitingCount="0" stopTime="0.00" timeLoss="5.76" rerouteNo="0" devices="tripinfo_72" vType="DEFAULT_VEHTYPE" speedFactor="0.94" vaporized=""/>
    <tripinfo id="20" depart="20.00" departLane="30814438#2_0" departPos="5.10" departSpeed="0.00" departDelay="0.00" arrival="125.00" arrivalLane="-23185949_0" arrivalPos="0.20" arrivalSpeed="5.48" duration="105.00" routeLength="521.27" waitingTime="23.00" waitingCount="2" stopTime="0.00" timeLoss="53.60" rerouteNo="0" devices="tripinfo_20" vType="DEFAULT_VEHTYPE" speedFactor="1.02" vaporized=""/>
    <tripinfo id="45" depart="45.00" departLane="-30824033#5_0" departPos="5.10" departSpeed="0.00" departDelay="0.00" arrival="128.00" arrivalLane="292179033#9_2" arrivalPos="85.14" arrivalSpeed="13.95" duration="83.00" routeLength="772.36" waitingTime="3.00" waitingCount="1" stopTime="0.00" timeLoss="16.69" rerouteNo="0" devices="tripinfo_45" vType="DEFAULT_VEHTYPE" speedFactor="1.09" vaporized=""/>
    <tripinfo id="8" depart="8.00" departLane="1023996215#0_0" departPos="5.10" departSpeed="0.00" departDelay="0.00" arrival="131.00" arrivalLane="292179033#0_2" arrivalPos="66.64" arrivalSpeed="12.32" duration="123.00" routeLength="989.58" waitingTime="10.00" waitingCount="1" stopTime="0.00" timeLoss="25.35" rerouteNo="0" devices="tripinfo_8" vType="DEFAULT_VEHTYPE" speedFactor="0.94" vaporized=""/>
    <tripinfo id="57" depart="60.00" departLane="391140867_0" departPos="5.10" departSpeed="0.00" departDelay="3.00" arrival="134.00" arrivalLane="391140800#0_0" arrivalPos="44.33" arrivalSpeed="8.51" duration="74.00" routeLength="434.44" waitingTime="10.00" waitingCount="1" stopTime="0.00" timeLoss="27.10" rerouteNo="0" devices="tripinfo_57" vType="DEFAULT_VEHTYPE" speedFactor="1.14" vaporized=""/>
    <tripinfo id="23" depart="23.00" departLane="-30824033#1_0" departPos="5.10" departSpeed="0.00" departDelay="0.00" arrival="139.00" arrivalLane="1467263797#0_0" arrivalPos="93.39" arrivalSpeed="11.95" duration="116.00" routeLength="975.91" waitingTime="0.00" waitingCount="0" stopTime="0.00" timeLoss="12.43" rerouteNo="0" devices="tripinfo_23" vType="DEFAULT_VEHTYPE" speedFactor="0.89" vaporized=""/>
    <tripinfo id="99" depart="99.00" departLane="83202926#0_0" departPos="5.10" departSpeed="0.00" departDelay="0.00" arrival="141.00" arrivalLane="685037225#0_0" arrivalPos="71.12" arrivalSpeed="8.90" duration="42.00" routeLength="409.94" waitingTime="0.00" waitingCount="0" stopTime="0.00" timeLoss="6.21" rerouteNo="0" devices="tripinfo_99" vType="DEFAULT_VEHTYPE" speedFactor="1.10" vaporized=""/>
    <tripinfo id="14" depart="14.00" departLane="34035657#0_0" departPos="5.10" departSpeed="0.00" departDelay="0.00" arrival="143.00" arrivalLane="292179033#4_2" arrivalPos="83.10" arrivalSpeed="13.32" duration="129.00" routeLength="1071.80" waitingTime="3.00" waitingCount="1" stopTime="0.00" timeLoss="23.63" rerouteNo="0" devices="tripinfo_14" vType="DEFAULT_VEHTYPE" speedFactor="0.99" vaporized=""/>
    <tripinfo id="109" depart="109.00" departLane="83202926#0_0" departPos="5.10" departSpeed="0.00" departDelay="0.00" arrival="145.00" arrivalLane="23837911#1_0" arrivalPos="216.99" arrivalSpeed="13.21" duration="36.00" routeLength="329.76" waitingTime="0.00" waitingCount="0" stopTime="0.00" timeLoss="5.44" rerouteNo="0" devices="tripinfo_109" vType="DEFAULT_VEHTYPE" speedFactor="0.96" vaporized=""/>
    <tripinfo id="84" depart="84.00" departLane="-945850922_0" departPos="5.10" departSpeed="0.00" departDelay="0.00" arrival="147.00" arrivalLane="-33523355#1_0" arrivalPos="32.98" arrivalSpeed="8.57" duration="63.00" routeLength="539.85" waitingTime="0.00" waitingCount="0" stopTime="0.00" timeLoss="5.79" rerouteNo="0" devices="tripinfo_84" vType="DEFAULT_VEHTYPE" speedFactor="1.15" vaporized=""/>
    <tripinfo id="93" depart="93.00" departLane="34036009#0_0" departPos="5.10" departSpeed="0.00" departDelay="0.00" arrival="148.00" arrivalLane="135982476#3_0" arrivalPos="93.28" arrivalSpeed="11.62" duration="55.00" routeLength="392.80" waitingTime="0.00" waitingCount="0" stopTime="0.00" timeLoss="7.06" rerouteNo="0" devices="tripinfo_93" vType="DEFAULT_VEHTYPE" speedFactor="0.92" vaporized=""/>
    <tripinfo id="71" depart="71.00" departLane="135982476#0_0" departPos="5.10" departSpeed="0.00" departDelay="0.00" arrival="149.00" arrivalLane="391140800#0_0" arrivalPos="44.33" arrivalSpeed="7.76" duration="78.00" routeLength="660.37" waitingTime="2.00" waitingCount="1" stopTime="0.00" timeLoss="14.72" rerouteNo="0" devices="tripinfo_71" vType="DEFAULT_VEHTYPE" speedFactor="0.97" vaporized=""/>
    <tripinfo id="126" depart="126.00" departLane="971680056#0_0" departPos="5.10" departSpeed="0.00" departDelay="0.00" arrival="155.00" arrivalLane="971680056#0_0" arrivalPos="352.42" arrivalSpeed="13.34" duration="29.00" routeLength="347.32" waitingTime="0.00" waitingCount="0" stopTime="0.00" timeLoss="4.56" rerouteNo="0" devices="tripinfo_126" vType="DEFAULT_VEHTYPE" speedFactor="1.03" vaporized=""/>
    <tripinfo id="118" depart="118.00" departLane="237638594#2_0" departPos="5.10" departSpeed="0.00" departDelay="0.00" arrival="158.00" arrivalLane="292179033#7_0" arrivalPos="28.01" arrivalSpeed="13.19" duration="40.00" routeLength="300.49" waitingTime="1.00" waitingCount="1" stopTime="0.00" timeLoss="10.92" rerouteNo="0" devices="tripinfo_118" vType="DEFAULT_VEHTYPE" speedFactor="0.99" vaporized=""/>
    <tripinfo id="98" depart="99.00" departLane="23276766#3_0" departPos="5.10" departSpeed="0.00" departDelay="1.00" arrival="161.00" arrivalLane="-23276766#0_0" arrivalPos="20.44" arrivalSpeed="8.82" duration="62.00" routeLength="498.03" waitingTime="0.00" waitingCount="0" stopTime="0.00" timeLoss="7.52" rerouteNo="0" devices="tripinfo_98" vType="DEFAULT_VEHTYPE" speedFactor="1.12" vaporized=""/>
    <tripinfo id="116" depart="116.00" departLane="103538896_0" departPos="5.10" departSpeed="0.00" departDelay="0.00" arrival="163.00" arrivalLane="-30824033#1_0" arrivalPos="128.59" arrivalSpeed="9.14" duration="47.00" routeLength="379.28" waitingTime="0.00" waitingCount="0" stopTime="0.00" timeLoss="6.51" rerouteNo="0" devices="tripinfo_116" vType="DEFAULT_VEHTYPE" speedFactor="1.18" vaporized=""/>
    <tripinfo id="129" depart="130.00" departLane="391140800#0_0" departPos="5.10" departSpeed="0.00" departDelay="1.00" arrival="163.00" arrivalLane="391140800#2_0" arrivalPos="121.76" arrivalSpeed="7.35" duration="33.00" routeLength="170.77" waitingTime="5.00" waitingCount="1" stopTime="0.00" timeLoss="11.90" rerouteNo="0" devices="tripinfo_129" vType="DEFAULT_VEHTYPE" speedFactor="1.01" vaporized=""/>
    <tripinfo id="69" depart="69.00" departLane="33523355#0_0" departPos="5.10" departSpeed="0.00" departDelay="0.00" arrival="166.00" arrivalLane="-30824033#5_0" arrivalPos="161.21" arrivalSpeed="8.22" duration="97.00" routeLength="595.08" waitingTime="14.00" waitingCount="1" stopTime="0.00" timeLoss="26.29" rerouteNo="0" devices="tripinfo_69" vType="DEFAULT_VEHTYPE" speedFactor="1.02" vaporized=""/>
    <tripinfo id="1" depart="1.00" departLane="135982476#3_0" departPos="5.10" departSpeed="0.00" departDelay="0.00" arrival="169.00" arrivalLane="1067121593#0_0" arrivalPos="147.54" arrivalSpeed="7.01" duration="168.00" routeLength="1140.40" waitingTime="4.00" waitingCount="1" stopTime="0.00" timeLoss="28.65" rerouteNo="0" devices="tripinfo_1" vType="DEFAULT_VEHTYPE" speedFactor="0.94" vaporized=""/>
    <tripinfo id="10" depart="12.00" departLane="33523402_0" departPos="0.20" departSpeed="0.00" departDelay="2.00" arrival="169.00" arrivalLane="31103210_0" arrivalPos="110.43" arrivalSpeed="7.95" duration="157.00" routeLength="1151.95" waitingTime="39.00" waitingCount="5" stopTime="0.00" timeLoss="70.53" rerouteNo="0" devices="tripinfo_10" vType="DEFAULT_VEHTYPE" speedFactor="1.09" vaporized=""/>
    <tripinfo id="166" depart="167.00" departLane="379112060#0_0" departPos="5.10" departSpeed="0.00" departDelay="1.00" arrival="169.00" arrivalLane="379112060#0_0" arrivalPos="7.21" arrivalSpeed="4.08" duration="2.00" routeLength="2.11" waitingTime="0.00" waitingCount="0" stopTime="0.00" timeLoss="1.28" rerouteNo="0" devices="tripinfo_166" vType="DEFAULT_VEHTYPE" speedFactor="1.00" vaporized=""/>
    <tripinfo id="42" depart="42.00" departLane="23271728#0_0" departPos="5.10" departSpeed="0.00" departDelay="0.00" arrival="172.00" arrivalLane="1067121593#0_0" arrivalPos="147.54" arrivalSpeed="8.33" duration="130.00" routeLength="801.22" waitingTime="26.00" waitingCount="2" stopTime="0.00" timeLoss="40.69" rerouteNo="0" devices="tripinfo_42" vType="DEFAULT_VEHTYPE" speedFactor="1.09" vaporized=""/>
    <tripinfo id="76" depart="76.00" departLane="23271762#3_0" departPos="5.10" departSpeed="0.00" departDelay="0.00" arrival="173.00" arrivalLane="23295986#0_2" arrivalPos="42.15" arrivalSpeed="13.64" duration="97.00" routeLength="564.35" waitingTime="16.00" waitingCount="3" stopTime="0.00" timeLoss="33.04" rerouteNo="0" devices="tripinfo_76" vType="DEFAULT_VEHTYPE" speedFactor="1.03" vaporized=""/>
    <tripinfo id="80" depart="80.00" departLane="-237638594#1_0" departPos="5.10" departSpeed="0.00" departDelay="0.00" arrival="173.00" arrivalLane="292179033#9_0" arrivalPos="85.14" arrivalSpeed="14.07" duration="93.00" routeLength="809.23" waitingTime="0.00" waitingCount="0" stopTime="0.00" timeLoss="9.56" rerouteNo="0" devices="tripinfo_80" vType="DEFAULT_VEHTYPE" speedFactor="1.03" vaporized=""/>
    <tripinfo id="82" depart="82.00" departLane="34036009#0_0" departPos="5.10" departSpeed="0.00" departDelay="0.00" arrival="174.00" arrivalLane="-23296952#2_0" arrivalPos="165.30" arrivalSpeed="7.82" duration="92.00" routeLength="683.30" waitingTime="0.00" waitingCount="0" stopTime="0.00" timeLoss="13.25" rerouteNo="0" devices="tripinfo_82" vType="DEFAULT_VEHTYPE" speedFactor="1.02" vaporized=""/>
    <tripinfo id="2" depart="2.00" departLane="33523238#0_0" departPos="5.10" departSpeed="0.00" departDelay="0.00" arrival="175.00" arrivalLane="30824033#2_0" arrivalPos="161.41" arrivalSpeed="8.09" duration="173.00" routeLength="994.57" waitingTime="29.00" waitingCount="3" stopTime="0.00" timeLoss="53.94" rerouteNo="0" devices="tripinfo_2" vType="DEFAULT_VEHTYPE" speedFactor="1.01" vaporized=""/>
    <tripinfo id="49" depart="49.00" departLane="83202926#0_0" departPos="5.10" departSpeed="0.00" departDelay="0.00" arrival="179.00" arrivalLane="38592259_0" arrivalPos="15.36" arrivalSpeed="7.06" duration="130.00" routeLength="792.12" waitingTime="20.00" waitingCount="1" stopTime="0.00" timeLoss="35.83" rerouteNo="0" devices="tripinfo_49" vType="DEFAULT_VEHTYPE" speedFactor="0.85" vaporized=""/>
    <tripinfo id="18" depart="18.00" departLane="34034103#2_0" departPos="5.10" departSpeed="0.00" departDelay="0.00" arrival="181.00" arrivalLane="292179033#7_2" arrivalPos="28.01" arrivalSpeed="12.07" duration="163.00" routeLength="813.21" waitingTime="14.00" waitingCount="1" stopTime="0.00" timeLoss="39.78" rerouteNo="0" devices="tripinfo_18" vType="DEFAULT_VEHTYPE" speedFactor="0.94" vaporized=""/>
    <tripinfo id="66" depart="67.00" departLane="391140800#0_0" departPos="5.10" departSpeed="0.00" departDelay="1.00" arrival="185.00" arrivalLane="696335396#2_0" arrivalPos="14.46" arrivalSpeed="7.14" duration="118.00" routeLength="717.95" waitingTime="5.00" waitingCount="1" stopTime="0.00" timeLoss="21.47" rerouteNo="0" devices="tripinfo_66" vType="DEFAULT_VEHTYPE" speedFactor="0.91" vaporized=""/>
    <tripinfo id="120" depart="120.00" departLane="23276555_0" departPos="5.10" departSpeed="0.00" departDelay="0.00" arrival="185.00" arrivalLane="696335395_0" arrivalPos="5.45" arrivalSpeed="7.57" duration="65.00" routeLength="192.41" waitingTime="4.00" waitingCount="1" stopTime="0.00" timeLoss="20.94" rerouteNo="0" devices="tripinfo_120" vType="DEFAULT_VEHTYPE" speedFactor="0.94" vaporized=""/>
    <tripinfo id="52" depart="52.00" departLane="135982476#3_0" departPos="5.10" departSpeed="0.00" departDelay="0.00" arrival="189.00" arrivalLane="30814311#0_0" arrivalPos="204.96" arrivalSpeed="7.32" duration="137.00" routeLength="1062.70" waitingTime="19.00" waitingCount="2" stopTime="0.00" timeLoss="41.68" rerouteNo="0" devices="tripinfo_52" vType="DEFAULT_VEHTYPE" speedFactor="1.02" vaporized=""/>
    <tripinfo id="141" depart="141.00" departLane="23276536_0" departPos="5.10" departSpeed="0.00" departDelay="0.00" arrival="191.00" arrivalLane="391140867_0" arrivalPos="20.01" arrivalSpeed="8.80" duration="50.00" routeLength="357.47" waitingTime="3.00" waitingCount="1" stopTime="0.00" timeLoss="12.46" rerouteNo="0" devices="tripinfo_141" vType="DEFAULT_VEHTYPE" speedFactor="1.16" vaporized=""/>
    <tripinfo id="89" depart="89.00" departLane="23271762#1_0" departPos="5.10" departSpeed="0.00" departDelay="0.00" arrival="196.00" arrivalLane="23276548_0" arrivalPos="108.85" arrivalSpeed="2.57" duration="107.00" routeLength="509.02" waitingTime="0.00" waitingCount="0" stopTime="0.00" timeLoss="20.10" rerouteNo="0" devices="tripinfo_89" vType="DEFAULT_VEHTYPE" speedFactor="1.02" vaporized=""/>
    <tripinfo id="103" depart="103.00" departLane="23271710_0" departPos="5.10" departSpeed="0.00" departDelay="0.00" arrival="196.00" arrivalLane="95408280#0_0" arrivalPos="152.04" arrivalSpeed="7.90" duration="93.00" routeLength="500.79" waitingTime="16.00" waitingCount="2" stopTime="0.00" timeLoss="29.03" rerouteNo="0" devices="tripinfo_103" vType="DEFAULT_VEHTYPE" speedFactor="0.95" vaporized=""/>
    <tripinfo id="17" depart="17.00" departLane="23271710_0" departPos="5.10" departSpeed="0.00" departDelay="0.00" arrival="197.00" arrivalLane="23837909#0_0" arrivalPos="255.35" arrivalSpeed="12.27" duration="180.00" routeLength="1417.71" waitingTime="7.00" waitingCount="2" stopTime="0.00" timeLoss="29.89" rerouteNo="0" devices="tripinfo_17" vType="DEFAULT_VEHTYPE" speedFactor="0.94" vaporized=""/>
    <tripinfo id="33" depart="33.00" departLane="103538896_0" departPos="5.10" departSpeed="0.00" departDelay="0.00" arrival="197.00" arrivalLane="-171520872#1_0" arrivalPos="247.58" arrivalSpeed="2.78" duration="164.00" routeLength="757.30" waitingTime="0.00" waitingCount="0" stopTime="0.00" timeLoss="37.28" rerouteNo="0" devices="tripinfo_33" vType="DEFAULT_VEHTYPE" speedFactor="1.17" vaporized=""/>
    <tripinfo id="73" depart="73.00" departLane="23276766#1_0" departPos="5.10" departSpeed="0.00" departDelay="0.00" arrival="198.00" arrivalLane="33523355#0_0" arrivalPos="33.29" arrivalSpeed="8.51" duration="125.00" routeLength="963.31" waitingTime="0.00" waitingCount="0" stopTime="0.00" timeLoss="13.84" rerouteNo="0" devices="tripinfo_73" vType="DEFAULT_VEHTYPE" speedFactor="1.06" vaporized=""/>
    <tripinfo id="22" depart="22.00" departLane="-237638594#3_0" departPos="5.10" departSpeed="0.00" departDelay="0.00" arrival="199.00" arrivalLane="1103834241_0" arrivalPos="37.58" arrivalSpeed="7.55" duration="177.00" routeLength="1126.23" waitingTime="19.00" waitingCount="2" stopTime="0.00" timeLoss="54.14" rerouteNo="0" devices="tripinfo_22" vType="DEFAULT_VEHTYPE" speedFactor="0.97" vaporized=""/>
    <tripinfo id="110" depart="110.00" departLane="23276766#1_0" departPos="5.10" departSpeed="0.00" departDelay="0.00" arrival="199.00" arrivalLane="33523355#3_0" arrivalPos="38.56" arrivalSpeed="7.49" duration="89.00" routeLength="472.89" waitingTime="11.00" waitingCount="1" stopTime="0.00" timeLoss="25.89" rerouteNo="0" devices="tripinfo_110" vType="DEFAULT_VEHTYPE" speedFactor="0.93" vaporized=""/>
    <tripinfo id="50" depart="50.00" departLane="-1103834241_0" departPos="5.10" departSpeed="0.00" departDelay="0.00" arrival="206.00" arrivalLane="33523243#0_0" arrivalPos="76.72" arrivalSpeed="6.91" duration="156.00" routeLength="492.72" waitingTime="0.00" waitingCount="0" stopTime="0.00" timeLoss="32.41" rerouteNo="0" devices="tripinfo_50" vType="DEFAULT_VEHTYPE" speedFactor="0.85" vaporized=""/>
    <tripinfo id="58" depart="58.00" departLane="1467263797#0_0" departPos="5.10" departSpeed="0.00" departDelay="0.00" arrival="206.00" arrivalLane="30814311#0_0" arrivalPos="204.96" arrivalSpeed="7.67" duration="148.00" routeLength="1003.33" waitingTime="26.00" waitingCount="3" stopTime="0.00" timeLoss="57.75" rerouteNo="0" devices="tripinfo_58" vType="DEFAULT_VEHTYPE" speedFactor="1.02" vaporized=""/>
    <tripinfo id="102" depart="102.00" departLane="23271728#1_0" departPos="5.10" departSpeed="0.00" departDelay="0.00" arrival="206.00" arrivalLane="-23276766#2_0" arrivalPos="131.38" arrivalSpeed="5.86" duration="104.00" routeLength="608.68" waitingTime="10.00" waitingCount="1" stopTime="0.00" timeLoss="27.69" rerouteNo="0" devices="tripinfo_102" vType="DEFAULT_VEHTYPE" speedFactor="0.97" vaporized=""/>
    <tripinfo id="3" depart="3.00" departLane="391140800#2_0" departPos="5.10" departSpeed="0.00" departDelay="0.00" arrival="207.00" arrivalLane="-237638594#1_0" arrivalPos="198.81" arrivalSpeed="7.74" duration="204.00" routeLength="1622.06" waitingTime="2.00" waitingCount="1" stopTime="0.00" timeLoss="31.21" rerouteNo="0" devices="tripinfo_3" vType="DEFAULT_VEHTYPE" speedFactor="1.08" vaporized=""/>
    <tripinfo id="30" depart="30.00" departLane="95408280#0_0" departPos="5.10" departSpeed="0.00" departDelay="0.00" arrival="208.00" arrivalLane="30814311#0_0" arrivalPos="204.96" arrivalSpeed="8.82" duration="178.00" routeLength="1493.15" waitingTime="0.00" waitingCount="0" stopTime="0.00" timeLoss="32.13" rerouteNo="0" devices="tripinfo_30" vType="DEFAULT_VEHTYPE" speedFactor="1.18" vaporized=""/>
    <tripinfo id="60" depart="60.00" departLane="33523355#0_0" departPos="5.10" departSpeed="0.00" departDelay="0.00" arrival="208.00" arrivalLane="237638594#1_0" arrivalPos="202.43" arrivalSpeed="8.69" duration="148.00" routeLength="1169.57" waitingTime="4.00" waitingCount="1" stopTime="0.00" timeLoss="25.39" rerouteNo="0" devices="tripinfo_60" vType="DEFAULT_VEHTYPE" speedFactor="1.08" vaporized=""/>
    <tripinfo id="138" depart="141.00" departLane="135982476#3_0" departPos="5.10" departSpeed="0.00" departDelay="3.00" arrival="210.00" arrivalLane="292179033#4_2" arrivalPos="83.10" arrivalSpeed="13.49" duration="69.00" routeLength="702.59" waitingTime="6.00" waitingCount="1" stopTime="0.00" timeLoss="17.18" rerouteNo="0" devices="tripinfo_138" vType="DEFAULT_VEHTYPE" speedFactor="1.00" vaporized=""/>
    <tripinfo id="9" depart="9.00" departLane="33523402_0" departPos="0.20" departSpeed="0.00" departDelay="0.00" arrival="211.00" arrivalLane="-1023996215#2_0" arrivalPos="140.01" arrivalSpeed="5.93" duration="202.00" routeLength="1348.29" waitingTime="36.00" waitingCount="4" stopTime="0.00" timeLoss="64.83" rerouteNo="0" devices="tripinfo_9" vType="DEFAULT_VEHTYPE" speedFactor="0.86" vaporized=""/>
    <tripinfo id="86" depart="86.00" departLane="23276172#0_0" departPos="5.10" departSpeed="0.00" departDelay="0.00" arrival="211.00" arrivalLane="33523578#0_0" arrivalPos="41.49" arrivalSpeed="7.84" duration="125.00" routeLength="829.27" waitingTime="6.00" waitingCount="1" stopTime="0.00" timeLoss="25.17" rerouteNo="0" devices="tripinfo_86" vType="DEFAULT_VEHTYPE" speedFactor="1.00" vaporized=""/>
    <tripinfo id="114" depart="114.00" departLane="-237638594#3_0" departPos="5.10" departSpeed="0.00" departDelay="0.00" arrival="211.00" arrivalLane="-455829556#2_0" arrivalPos="118.16" arrivalSpeed="8.81" duration="97.00" routeLength="769.88" waitingTime="6.00" waitingCount="1" stopTime="0.00" timeLoss="27.15" rerouteNo="0" devices="tripinfo_114" vType="DEFAULT_VEHTYPE" speedFactor="1.10" vaporized=""/>
    <tripinfo id="140" depart="140.00" departLane="292179033#0_0" departPos="5.10" departSpeed="0.00" departDelay="0.00" arrival="212.00" arrivalLane="1467263796#0_1" arrivalPos="236.51" arrivalSpeed="14.95" duration="72.00" routeLength="789.90" waitingTime="7.00" waitingCount="1" stopTime="0.00" timeLoss="20.03" rerouteNo="0" devices="tripinfo_140" vType="DEFAULT_VEHTYPE" speedFactor="1.11" vaporized=""/>
    <tripinfo id="26" depart="26.00" departLane="135982476#3_0" departPos="5.10" departSpeed="0.00" departDelay="0.00" arrival="213.00" arrivalLane="696335395_0" arrivalPos="5.45" arrivalSpeed="6.57" duration="187.00" routeLength="1183.49" waitingTime="13.00" waitingCount="2" stopTime="0.00" timeLoss="37.59" rerouteNo="0" devices="tripinfo_26" vType="DEFAULT_VEHTYPE" speedFactor="0.92" vaporized=""/>
    <tripinfo id="145" depart="145.00" departLane="292179033#0_0" departPos="5.10" departSpeed="0.00" departDelay="0.00" arrival="213.00" arrivalLane="1467263796#0_1" arrivalPos="236.51" arrivalSpeed="15.53" duration="68.00" routeLength="789.90" waitingTime="4.00" waitingCount="1" stopTime="0.00" timeLoss="17.85" rerouteNo="0" devices="tripinfo_145" vType="DEFAULT_VEHTYPE" speedFactor="1.14" vaporized=""/>
    <tripinfo id="34" depart="34.00" departLane="1472800673#0_0" departPos="5.10" departSpeed="0.00" departDelay="0.00" arrival="214.00" arrivalLane="1467263796#0_0" arrivalPos="236.51" arrivalSpeed="13.05" duration="180.00" routeLength="1392.86" waitingTime="55.00" waitingCount="3" stopTime="0.00" timeLoss="78.32" rerouteNo="0" devices="tripinfo_34" vType="DEFAULT_VEHTYPE" speedFactor="0.99" vaporized=""/>
    <tripinfo id="108" depart="108.00" departLane="-33523578#2_0" departPos="5.10" departSpeed="0.00" departDelay="0.00" arrival="214.00" arrivalLane="1472850568#0_2" arrivalPos="66.58" arrivalSpeed="5.48" duration="106.00" routeLength="605.24" waitingTime="21.00" waitingCount="2" stopTime="0.00" timeLoss="43.05" rerouteNo="0" devices="tripinfo_108" vType="DEFAULT_VEHTYPE" speedFactor="1.06" vaporized=""/>